# generated from Phonopy-lammps interface by Xiaofeng Qian at TAMU (2018)
6400 atoms
2 atom types

0.00000000     160.05360000 xlo xhi
0.00000000     170.17680000 ylo yhi
0.00000000      12.78533000 zlo zhi

      0.00000000       0.00000000       0.00000000 xy xz yz

Atoms

1 2        0.00000000       1.61982787       7.59244037
2 2        4.00134000       1.61982787       7.59244037
3 2        8.00268000       1.61982787       7.59244037
4 2       12.00402000       1.61982787       7.59244037
5 2       16.00536000       1.61982787       7.59244037
6 2       20.00670000       1.61982787       7.59244037
7 2       24.00804000       1.61982787       7.59244037
8 2       28.00938000       1.61982787       7.59244037
9 2       32.01072000       1.61982787       7.59244037
10 2       36.01206000       1.61982787       7.59244037
11 2       40.01340000       1.61982787       7.59244037
12 2       44.01474000       1.61982787       7.59244037
13 2       48.01608000       1.61982787       7.59244037
14 2       52.01742000       1.61982787       7.59244037
15 2       56.01876000       1.61982787       7.59244037
16 2       60.02010000       1.61982787       7.59244037
17 2       64.02144000       1.61982787       7.59244037
18 2       68.02278000       1.61982787       7.59244037
19 2       72.02412000       1.61982787       7.59244037
20 2       76.02546000       1.61982787       7.59244037
21 2       80.02680000       1.61982787       7.59244037
22 2       84.02814000       1.61982787       7.59244037
23 2       88.02948000       1.61982787       7.59244037
24 2       92.03082000       1.61982787       7.59244037
25 2       96.03216000       1.61982787       7.59244037
26 2      100.03350000       1.61982787       7.59244037
27 2      104.03484000       1.61982787       7.59244037
28 2      108.03618000       1.61982787       7.59244037
29 2      112.03752000       1.61982787       7.59244037
30 2      116.03886000       1.61982787       7.59244037
31 2      120.04020000       1.61982787       7.59244037
32 2      124.04154000       1.61982787       7.59244037
33 2      128.04288000       1.61982787       7.59244037
34 2      132.04422000       1.61982787       7.59244037
35 2      136.04556000       1.61982787       7.59244037
36 2      140.04690000       1.61982787       7.59244037
37 2      144.04824000       1.61982787       7.59244037
38 2      148.04958000       1.61982787       7.59244037
39 2      152.05092000       1.61982787       7.59244037
40 2      156.05226000       1.61982787       7.59244037
41 2        0.00000000       5.87424787       7.59244037
42 2        4.00134000       5.87424787       7.59244037
43 2        8.00268000       5.87424787       7.59244037
44 2       12.00402000       5.87424787       7.59244037
45 2       16.00536000       5.87424787       7.59244037
46 2       20.00670000       5.87424787       7.59244037
47 2       24.00804000       5.87424787       7.59244037
48 2       28.00938000       5.87424787       7.59244037
49 2       32.01072000       5.87424787       7.59244037
50 2       36.01206000       5.87424787       7.59244037
51 2       40.01340000       5.87424787       7.59244037
52 2       44.01474000       5.87424787       7.59244037
53 2       48.01608000       5.87424787       7.59244037
54 2       52.01742000       5.87424787       7.59244037
55 2       56.01876000       5.87424787       7.59244037
56 2       60.02010000       5.87424787       7.59244037
57 2       64.02144000       5.87424787       7.59244037
58 2       68.02278000       5.87424787       7.59244037
59 2       72.02412000       5.87424787       7.59244037
60 2       76.02546000       5.87424787       7.59244037
61 2       80.02680000       5.87424787       7.59244037
62 2       84.02814000       5.87424787       7.59244037
63 2       88.02948000       5.87424787       7.59244037
64 2       92.03082000       5.87424787       7.59244037
65 2       96.03216000       5.87424787       7.59244037
66 2      100.03350000       5.87424787       7.59244037
67 2      104.03484000       5.87424787       7.59244037
68 2      108.03618000       5.87424787       7.59244037
69 2      112.03752000       5.87424787       7.59244037
70 2      116.03886000       5.87424787       7.59244037
71 2      120.04020000       5.87424787       7.59244037
72 2      124.04154000       5.87424787       7.59244037
73 2      128.04288000       5.87424787       7.59244037
74 2      132.04422000       5.87424787       7.59244037
75 2      136.04556000       5.87424787       7.59244037
76 2      140.04690000       5.87424787       7.59244037
77 2      144.04824000       5.87424787       7.59244037
78 2      148.04958000       5.87424787       7.59244037
79 2      152.05092000       5.87424787       7.59244037
80 2      156.05226000       5.87424787       7.59244037
81 2        0.00000000      10.12866787       7.59244037
82 2        4.00134000      10.12866787       7.59244037
83 2        8.00268000      10.12866787       7.59244037
84 2       12.00402000      10.12866787       7.59244037
85 2       16.00536000      10.12866787       7.59244037
86 2       20.00670000      10.12866787       7.59244037
87 2       24.00804000      10.12866787       7.59244037
88 2       28.00938000      10.12866787       7.59244037
89 2       32.01072000      10.12866787       7.59244037
90 2       36.01206000      10.12866787       7.59244037
91 2       40.01340000      10.12866787       7.59244037
92 2       44.01474000      10.12866787       7.59244037
93 2       48.01608000      10.12866787       7.59244037
94 2       52.01742000      10.12866787       7.59244037
95 2       56.01876000      10.12866787       7.59244037
96 2       60.02010000      10.12866787       7.59244037
97 2       64.02144000      10.12866787       7.59244037
98 2       68.02278000      10.12866787       7.59244037
99 2       72.02412000      10.12866787       7.59244037
100 2       76.02546000      10.12866787       7.59244037
101 2       80.02680000      10.12866787       7.59244037
102 2       84.02814000      10.12866787       7.59244037
103 2       88.02948000      10.12866787       7.59244037
104 2       92.03082000      10.12866787       7.59244037
105 2       96.03216000      10.12866787       7.59244037
106 2      100.03350000      10.12866787       7.59244037
107 2      104.03484000      10.12866787       7.59244037
108 2      108.03618000      10.12866787       7.59244037
109 2      112.03752000      10.12866787       7.59244037
110 2      116.03886000      10.12866787       7.59244037
111 2      120.04020000      10.12866787       7.59244037
112 2      124.04154000      10.12866787       7.59244037
113 2      128.04288000      10.12866787       7.59244037
114 2      132.04422000      10.12866787       7.59244037
115 2      136.04556000      10.12866787       7.59244037
116 2      140.04690000      10.12866787       7.59244037
117 2      144.04824000      10.12866787       7.59244037
118 2      148.04958000      10.12866787       7.59244037
119 2      152.05092000      10.12866787       7.59244037
120 2      156.05226000      10.12866787       7.59244037
121 2        0.00000000      14.38308787       7.59244037
122 2        4.00134000      14.38308787       7.59244037
123 2        8.00268000      14.38308787       7.59244037
124 2       12.00402000      14.38308787       7.59244037
125 2       16.00536000      14.38308787       7.59244037
126 2       20.00670000      14.38308787       7.59244037
127 2       24.00804000      14.38308787       7.59244037
128 2       28.00938000      14.38308787       7.59244037
129 2       32.01072000      14.38308787       7.59244037
130 2       36.01206000      14.38308787       7.59244037
131 2       40.01340000      14.38308787       7.59244037
132 2       44.01474000      14.38308787       7.59244037
133 2       48.01608000      14.38308787       7.59244037
134 2       52.01742000      14.38308787       7.59244037
135 2       56.01876000      14.38308787       7.59244037
136 2       60.02010000      14.38308787       7.59244037
137 2       64.02144000      14.38308787       7.59244037
138 2       68.02278000      14.38308787       7.59244037
139 2       72.02412000      14.38308787       7.59244037
140 2       76.02546000      14.38308787       7.59244037
141 2       80.02680000      14.38308787       7.59244037
142 2       84.02814000      14.38308787       7.59244037
143 2       88.02948000      14.38308787       7.59244037
144 2       92.03082000      14.38308787       7.59244037
145 2       96.03216000      14.38308787       7.59244037
146 2      100.03350000      14.38308787       7.59244037
147 2      104.03484000      14.38308787       7.59244037
148 2      108.03618000      14.38308787       7.59244037
149 2      112.03752000      14.38308787       7.59244037
150 2      116.03886000      14.38308787       7.59244037
151 2      120.04020000      14.38308787       7.59244037
152 2      124.04154000      14.38308787       7.59244037
153 2      128.04288000      14.38308787       7.59244037
154 2      132.04422000      14.38308787       7.59244037
155 2      136.04556000      14.38308787       7.59244037
156 2      140.04690000      14.38308787       7.59244037
157 2      144.04824000      14.38308787       7.59244037
158 2      148.04958000      14.38308787       7.59244037
159 2      152.05092000      14.38308787       7.59244037
160 2      156.05226000      14.38308787       7.59244037
161 2        0.00000000      18.63750787       7.59244037
162 2        4.00134000      18.63750787       7.59244037
163 2        8.00268000      18.63750787       7.59244037
164 2       12.00402000      18.63750787       7.59244037
165 2       16.00536000      18.63750787       7.59244037
166 2       20.00670000      18.63750787       7.59244037
167 2       24.00804000      18.63750787       7.59244037
168 2       28.00938000      18.63750787       7.59244037
169 2       32.01072000      18.63750787       7.59244037
170 2       36.01206000      18.63750787       7.59244037
171 2       40.01340000      18.63750787       7.59244037
172 2       44.01474000      18.63750787       7.59244037
173 2       48.01608000      18.63750787       7.59244037
174 2       52.01742000      18.63750787       7.59244037
175 2       56.01876000      18.63750787       7.59244037
176 2       60.02010000      18.63750787       7.59244037
177 2       64.02144000      18.63750787       7.59244037
178 2       68.02278000      18.63750787       7.59244037
179 2       72.02412000      18.63750787       7.59244037
180 2       76.02546000      18.63750787       7.59244037
181 2       80.02680000      18.63750787       7.59244037
182 2       84.02814000      18.63750787       7.59244037
183 2       88.02948000      18.63750787       7.59244037
184 2       92.03082000      18.63750787       7.59244037
185 2       96.03216000      18.63750787       7.59244037
186 2      100.03350000      18.63750787       7.59244037
187 2      104.03484000      18.63750787       7.59244037
188 2      108.03618000      18.63750787       7.59244037
189 2      112.03752000      18.63750787       7.59244037
190 2      116.03886000      18.63750787       7.59244037
191 2      120.04020000      18.63750787       7.59244037
192 2      124.04154000      18.63750787       7.59244037
193 2      128.04288000      18.63750787       7.59244037
194 2      132.04422000      18.63750787       7.59244037
195 2      136.04556000      18.63750787       7.59244037
196 2      140.04690000      18.63750787       7.59244037
197 2      144.04824000      18.63750787       7.59244037
198 2      148.04958000      18.63750787       7.59244037
199 2      152.05092000      18.63750787       7.59244037
200 2      156.05226000      18.63750787       7.59244037
201 2        0.00000000      22.89192787       7.59244037
202 2        4.00134000      22.89192787       7.59244037
203 2        8.00268000      22.89192787       7.59244037
204 2       12.00402000      22.89192787       7.59244037
205 2       16.00536000      22.89192787       7.59244037
206 2       20.00670000      22.89192787       7.59244037
207 2       24.00804000      22.89192787       7.59244037
208 2       28.00938000      22.89192787       7.59244037
209 2       32.01072000      22.89192787       7.59244037
210 2       36.01206000      22.89192787       7.59244037
211 2       40.01340000      22.89192787       7.59244037
212 2       44.01474000      22.89192787       7.59244037
213 2       48.01608000      22.89192787       7.59244037
214 2       52.01742000      22.89192787       7.59244037
215 2       56.01876000      22.89192787       7.59244037
216 2       60.02010000      22.89192787       7.59244037
217 2       64.02144000      22.89192787       7.59244037
218 2       68.02278000      22.89192787       7.59244037
219 2       72.02412000      22.89192787       7.59244037
220 2       76.02546000      22.89192787       7.59244037
221 2       80.02680000      22.89192787       7.59244037
222 2       84.02814000      22.89192787       7.59244037
223 2       88.02948000      22.89192787       7.59244037
224 2       92.03082000      22.89192787       7.59244037
225 2       96.03216000      22.89192787       7.59244037
226 2      100.03350000      22.89192787       7.59244037
227 2      104.03484000      22.89192787       7.59244037
228 2      108.03618000      22.89192787       7.59244037
229 2      112.03752000      22.89192787       7.59244037
230 2      116.03886000      22.89192787       7.59244037
231 2      120.04020000      22.89192787       7.59244037
232 2      124.04154000      22.89192787       7.59244037
233 2      128.04288000      22.89192787       7.59244037
234 2      132.04422000      22.89192787       7.59244037
235 2      136.04556000      22.89192787       7.59244037
236 2      140.04690000      22.89192787       7.59244037
237 2      144.04824000      22.89192787       7.59244037
238 2      148.04958000      22.89192787       7.59244037
239 2      152.05092000      22.89192787       7.59244037
240 2      156.05226000      22.89192787       7.59244037
241 2        0.00000000      27.14634787       7.59244037
242 2        4.00134000      27.14634787       7.59244037
243 2        8.00268000      27.14634787       7.59244037
244 2       12.00402000      27.14634787       7.59244037
245 2       16.00536000      27.14634787       7.59244037
246 2       20.00670000      27.14634787       7.59244037
247 2       24.00804000      27.14634787       7.59244037
248 2       28.00938000      27.14634787       7.59244037
249 2       32.01072000      27.14634787       7.59244037
250 2       36.01206000      27.14634787       7.59244037
251 2       40.01340000      27.14634787       7.59244037
252 2       44.01474000      27.14634787       7.59244037
253 2       48.01608000      27.14634787       7.59244037
254 2       52.01742000      27.14634787       7.59244037
255 2       56.01876000      27.14634787       7.59244037
256 2       60.02010000      27.14634787       7.59244037
257 2       64.02144000      27.14634787       7.59244037
258 2       68.02278000      27.14634787       7.59244037
259 2       72.02412000      27.14634787       7.59244037
260 2       76.02546000      27.14634787       7.59244037
261 2       80.02680000      27.14634787       7.59244037
262 2       84.02814000      27.14634787       7.59244037
263 2       88.02948000      27.14634787       7.59244037
264 2       92.03082000      27.14634787       7.59244037
265 2       96.03216000      27.14634787       7.59244037
266 2      100.03350000      27.14634787       7.59244037
267 2      104.03484000      27.14634787       7.59244037
268 2      108.03618000      27.14634787       7.59244037
269 2      112.03752000      27.14634787       7.59244037
270 2      116.03886000      27.14634787       7.59244037
271 2      120.04020000      27.14634787       7.59244037
272 2      124.04154000      27.14634787       7.59244037
273 2      128.04288000      27.14634787       7.59244037
274 2      132.04422000      27.14634787       7.59244037
275 2      136.04556000      27.14634787       7.59244037
276 2      140.04690000      27.14634787       7.59244037
277 2      144.04824000      27.14634787       7.59244037
278 2      148.04958000      27.14634787       7.59244037
279 2      152.05092000      27.14634787       7.59244037
280 2      156.05226000      27.14634787       7.59244037
281 2        0.00000000      31.40076787       7.59244037
282 2        4.00134000      31.40076787       7.59244037
283 2        8.00268000      31.40076787       7.59244037
284 2       12.00402000      31.40076787       7.59244037
285 2       16.00536000      31.40076787       7.59244037
286 2       20.00670000      31.40076787       7.59244037
287 2       24.00804000      31.40076787       7.59244037
288 2       28.00938000      31.40076787       7.59244037
289 2       32.01072000      31.40076787       7.59244037
290 2       36.01206000      31.40076787       7.59244037
291 2       40.01340000      31.40076787       7.59244037
292 2       44.01474000      31.40076787       7.59244037
293 2       48.01608000      31.40076787       7.59244037
294 2       52.01742000      31.40076787       7.59244037
295 2       56.01876000      31.40076787       7.59244037
296 2       60.02010000      31.40076787       7.59244037
297 2       64.02144000      31.40076787       7.59244037
298 2       68.02278000      31.40076787       7.59244037
299 2       72.02412000      31.40076787       7.59244037
300 2       76.02546000      31.40076787       7.59244037
301 2       80.02680000      31.40076787       7.59244037
302 2       84.02814000      31.40076787       7.59244037
303 2       88.02948000      31.40076787       7.59244037
304 2       92.03082000      31.40076787       7.59244037
305 2       96.03216000      31.40076787       7.59244037
306 2      100.03350000      31.40076787       7.59244037
307 2      104.03484000      31.40076787       7.59244037
308 2      108.03618000      31.40076787       7.59244037
309 2      112.03752000      31.40076787       7.59244037
310 2      116.03886000      31.40076787       7.59244037
311 2      120.04020000      31.40076787       7.59244037
312 2      124.04154000      31.40076787       7.59244037
313 2      128.04288000      31.40076787       7.59244037
314 2      132.04422000      31.40076787       7.59244037
315 2      136.04556000      31.40076787       7.59244037
316 2      140.04690000      31.40076787       7.59244037
317 2      144.04824000      31.40076787       7.59244037
318 2      148.04958000      31.40076787       7.59244037
319 2      152.05092000      31.40076787       7.59244037
320 2      156.05226000      31.40076787       7.59244037
321 2        0.00000000      35.65518787       7.59244037
322 2        4.00134000      35.65518787       7.59244037
323 2        8.00268000      35.65518787       7.59244037
324 2       12.00402000      35.65518787       7.59244037
325 2       16.00536000      35.65518787       7.59244037
326 2       20.00670000      35.65518787       7.59244037
327 2       24.00804000      35.65518787       7.59244037
328 2       28.00938000      35.65518787       7.59244037
329 2       32.01072000      35.65518787       7.59244037
330 2       36.01206000      35.65518787       7.59244037
331 2       40.01340000      35.65518787       7.59244037
332 2       44.01474000      35.65518787       7.59244037
333 2       48.01608000      35.65518787       7.59244037
334 2       52.01742000      35.65518787       7.59244037
335 2       56.01876000      35.65518787       7.59244037
336 2       60.02010000      35.65518787       7.59244037
337 2       64.02144000      35.65518787       7.59244037
338 2       68.02278000      35.65518787       7.59244037
339 2       72.02412000      35.65518787       7.59244037
340 2       76.02546000      35.65518787       7.59244037
341 2       80.02680000      35.65518787       7.59244037
342 2       84.02814000      35.65518787       7.59244037
343 2       88.02948000      35.65518787       7.59244037
344 2       92.03082000      35.65518787       7.59244037
345 2       96.03216000      35.65518787       7.59244037
346 2      100.03350000      35.65518787       7.59244037
347 2      104.03484000      35.65518787       7.59244037
348 2      108.03618000      35.65518787       7.59244037
349 2      112.03752000      35.65518787       7.59244037
350 2      116.03886000      35.65518787       7.59244037
351 2      120.04020000      35.65518787       7.59244037
352 2      124.04154000      35.65518787       7.59244037
353 2      128.04288000      35.65518787       7.59244037
354 2      132.04422000      35.65518787       7.59244037
355 2      136.04556000      35.65518787       7.59244037
356 2      140.04690000      35.65518787       7.59244037
357 2      144.04824000      35.65518787       7.59244037
358 2      148.04958000      35.65518787       7.59244037
359 2      152.05092000      35.65518787       7.59244037
360 2      156.05226000      35.65518787       7.59244037
361 2        0.00000000      39.90960787       7.59244037
362 2        4.00134000      39.90960787       7.59244037
363 2        8.00268000      39.90960787       7.59244037
364 2       12.00402000      39.90960787       7.59244037
365 2       16.00536000      39.90960787       7.59244037
366 2       20.00670000      39.90960787       7.59244037
367 2       24.00804000      39.90960787       7.59244037
368 2       28.00938000      39.90960787       7.59244037
369 2       32.01072000      39.90960787       7.59244037
370 2       36.01206000      39.90960787       7.59244037
371 2       40.01340000      39.90960787       7.59244037
372 2       44.01474000      39.90960787       7.59244037
373 2       48.01608000      39.90960787       7.59244037
374 2       52.01742000      39.90960787       7.59244037
375 2       56.01876000      39.90960787       7.59244037
376 2       60.02010000      39.90960787       7.59244037
377 2       64.02144000      39.90960787       7.59244037
378 2       68.02278000      39.90960787       7.59244037
379 2       72.02412000      39.90960787       7.59244037
380 2       76.02546000      39.90960787       7.59244037
381 2       80.02680000      39.90960787       7.59244037
382 2       84.02814000      39.90960787       7.59244037
383 2       88.02948000      39.90960787       7.59244037
384 2       92.03082000      39.90960787       7.59244037
385 2       96.03216000      39.90960787       7.59244037
386 2      100.03350000      39.90960787       7.59244037
387 2      104.03484000      39.90960787       7.59244037
388 2      108.03618000      39.90960787       7.59244037
389 2      112.03752000      39.90960787       7.59244037
390 2      116.03886000      39.90960787       7.59244037
391 2      120.04020000      39.90960787       7.59244037
392 2      124.04154000      39.90960787       7.59244037
393 2      128.04288000      39.90960787       7.59244037
394 2      132.04422000      39.90960787       7.59244037
395 2      136.04556000      39.90960787       7.59244037
396 2      140.04690000      39.90960787       7.59244037
397 2      144.04824000      39.90960787       7.59244037
398 2      148.04958000      39.90960787       7.59244037
399 2      152.05092000      39.90960787       7.59244037
400 2      156.05226000      39.90960787       7.59244037
401 2        0.00000000      44.16402787       7.59244037
402 2        4.00134000      44.16402787       7.59244037
403 2        8.00268000      44.16402787       7.59244037
404 2       12.00402000      44.16402787       7.59244037
405 2       16.00536000      44.16402787       7.59244037
406 2       20.00670000      44.16402787       7.59244037
407 2       24.00804000      44.16402787       7.59244037
408 2       28.00938000      44.16402787       7.59244037
409 2       32.01072000      44.16402787       7.59244037
410 2       36.01206000      44.16402787       7.59244037
411 2       40.01340000      44.16402787       7.59244037
412 2       44.01474000      44.16402787       7.59244037
413 2       48.01608000      44.16402787       7.59244037
414 2       52.01742000      44.16402787       7.59244037
415 2       56.01876000      44.16402787       7.59244037
416 2       60.02010000      44.16402787       7.59244037
417 2       64.02144000      44.16402787       7.59244037
418 2       68.02278000      44.16402787       7.59244037
419 2       72.02412000      44.16402787       7.59244037
420 2       76.02546000      44.16402787       7.59244037
421 2       80.02680000      44.16402787       7.59244037
422 2       84.02814000      44.16402787       7.59244037
423 2       88.02948000      44.16402787       7.59244037
424 2       92.03082000      44.16402787       7.59244037
425 2       96.03216000      44.16402787       7.59244037
426 2      100.03350000      44.16402787       7.59244037
427 2      104.03484000      44.16402787       7.59244037
428 2      108.03618000      44.16402787       7.59244037
429 2      112.03752000      44.16402787       7.59244037
430 2      116.03886000      44.16402787       7.59244037
431 2      120.04020000      44.16402787       7.59244037
432 2      124.04154000      44.16402787       7.59244037
433 2      128.04288000      44.16402787       7.59244037
434 2      132.04422000      44.16402787       7.59244037
435 2      136.04556000      44.16402787       7.59244037
436 2      140.04690000      44.16402787       7.59244037
437 2      144.04824000      44.16402787       7.59244037
438 2      148.04958000      44.16402787       7.59244037
439 2      152.05092000      44.16402787       7.59244037
440 2      156.05226000      44.16402787       7.59244037
441 2        0.00000000      48.41844787       7.59244037
442 2        4.00134000      48.41844787       7.59244037
443 2        8.00268000      48.41844787       7.59244037
444 2       12.00402000      48.41844787       7.59244037
445 2       16.00536000      48.41844787       7.59244037
446 2       20.00670000      48.41844787       7.59244037
447 2       24.00804000      48.41844787       7.59244037
448 2       28.00938000      48.41844787       7.59244037
449 2       32.01072000      48.41844787       7.59244037
450 2       36.01206000      48.41844787       7.59244037
451 2       40.01340000      48.41844787       7.59244037
452 2       44.01474000      48.41844787       7.59244037
453 2       48.01608000      48.41844787       7.59244037
454 2       52.01742000      48.41844787       7.59244037
455 2       56.01876000      48.41844787       7.59244037
456 2       60.02010000      48.41844787       7.59244037
457 2       64.02144000      48.41844787       7.59244037
458 2       68.02278000      48.41844787       7.59244037
459 2       72.02412000      48.41844787       7.59244037
460 2       76.02546000      48.41844787       7.59244037
461 2       80.02680000      48.41844787       7.59244037
462 2       84.02814000      48.41844787       7.59244037
463 2       88.02948000      48.41844787       7.59244037
464 2       92.03082000      48.41844787       7.59244037
465 2       96.03216000      48.41844787       7.59244037
466 2      100.03350000      48.41844787       7.59244037
467 2      104.03484000      48.41844787       7.59244037
468 2      108.03618000      48.41844787       7.59244037
469 2      112.03752000      48.41844787       7.59244037
470 2      116.03886000      48.41844787       7.59244037
471 2      120.04020000      48.41844787       7.59244037
472 2      124.04154000      48.41844787       7.59244037
473 2      128.04288000      48.41844787       7.59244037
474 2      132.04422000      48.41844787       7.59244037
475 2      136.04556000      48.41844787       7.59244037
476 2      140.04690000      48.41844787       7.59244037
477 2      144.04824000      48.41844787       7.59244037
478 2      148.04958000      48.41844787       7.59244037
479 2      152.05092000      48.41844787       7.59244037
480 2      156.05226000      48.41844787       7.59244037
481 2        0.00000000      52.67286787       7.59244037
482 2        4.00134000      52.67286787       7.59244037
483 2        8.00268000      52.67286787       7.59244037
484 2       12.00402000      52.67286787       7.59244037
485 2       16.00536000      52.67286787       7.59244037
486 2       20.00670000      52.67286787       7.59244037
487 2       24.00804000      52.67286787       7.59244037
488 2       28.00938000      52.67286787       7.59244037
489 2       32.01072000      52.67286787       7.59244037
490 2       36.01206000      52.67286787       7.59244037
491 2       40.01340000      52.67286787       7.59244037
492 2       44.01474000      52.67286787       7.59244037
493 2       48.01608000      52.67286787       7.59244037
494 2       52.01742000      52.67286787       7.59244037
495 2       56.01876000      52.67286787       7.59244037
496 2       60.02010000      52.67286787       7.59244037
497 2       64.02144000      52.67286787       7.59244037
498 2       68.02278000      52.67286787       7.59244037
499 2       72.02412000      52.67286787       7.59244037
500 2       76.02546000      52.67286787       7.59244037
501 2       80.02680000      52.67286787       7.59244037
502 2       84.02814000      52.67286787       7.59244037
503 2       88.02948000      52.67286787       7.59244037
504 2       92.03082000      52.67286787       7.59244037
505 2       96.03216000      52.67286787       7.59244037
506 2      100.03350000      52.67286787       7.59244037
507 2      104.03484000      52.67286787       7.59244037
508 2      108.03618000      52.67286787       7.59244037
509 2      112.03752000      52.67286787       7.59244037
510 2      116.03886000      52.67286787       7.59244037
511 2      120.04020000      52.67286787       7.59244037
512 2      124.04154000      52.67286787       7.59244037
513 2      128.04288000      52.67286787       7.59244037
514 2      132.04422000      52.67286787       7.59244037