# generated from Phonopy-lammps interface by Xiaofeng Qian at TAMU (2018)
800 atoms
2 atom types

0.00000000     160.65097000 xlo xhi
0.00000000      21.00226834 ylo yhi
0.00000000      18.78533200 zlo zhi

      0.00000000       0.00000000       0.00000000 xy xz yz

Atoms

1 1        2.00813713       1.08338900       8.17673100
2 1        6.02441138       1.08338900       8.17673100
3 1       10.04068563       1.08338900       8.17673100
4 1       14.05695988       1.08338900       8.17673100
5 1       18.07323413       1.08338900       8.17673100
6 1       22.08950838       1.08338900       8.17673100
7 1       26.10578263       1.08338900       8.17673100
8 1       30.12205688       1.08338900       8.17673100
9 1       34.13833113       1.08338900       8.17673100
10 1       38.15460538       1.08338900       8.17673100
11 1       42.17087963       1.08338900       8.17673100
12 1       46.18715388       1.08338900       8.17673100
13 1       50.20342813       1.08338900       8.17673100
14 1       54.21970238       1.08338900       8.17673100
15 1       58.23597663       1.08338900       8.17673100
16 1       62.25225088       1.08338900       8.17673100
17 1       66.26852513       1.08338900       8.17673100
18 1       70.28479938       1.08338900       8.17673100
19 1       74.30107363       1.08338900       8.17673100
20 1       78.31734788       1.08338900       8.17673100
21 1       82.33362213       1.08338900       8.17673100
22 1       86.34989638       1.08338900       8.17673100
23 1       90.36617063       1.08338900       8.17673100
24 1       94.38244488       1.08338900       8.17673100
25 1       98.39871913       1.08338900       8.17673100
26 1      102.41499338       1.08338900       8.17673100
27 1      106.43126763       1.08338900       8.17673100
28 1      110.44754188       1.08338900       8.17673100
29 1      114.46381613       1.08338900       8.17673100
30 1      118.48009038       1.08338900       8.17673100
31 1      122.49636463       1.08338900       8.17673100
32 1      126.51263888       1.08338900       8.17673100
33 1      130.52891313       1.08338900       8.17673100
34 1      134.54518738       1.08338900       8.17673100
35 1      138.56146163       1.08338900       8.17673100
36 1      142.57773588       1.08338900       8.17673100
37 1      146.59401013       1.08338900       8.17673100
38 1      150.61028438       1.08338900       8.17673100
39 1      154.62655863       1.08338900       8.17673100
40 1      158.64283288       1.08338900       8.17673100
41 1        2.00813713       5.28384267       8.17673100
42 1        6.02441138       5.28384267       8.17673100
43 1       10.04068563       5.28384267       8.17673100
44 1       14.05695988       5.28384267       8.17673100
45 1       18.07323413       5.28384267       8.17673100
46 1       22.08950838       5.28384267       8.17673100
47 1       26.10578263       5.28384267       8.17673100
48 1       30.12205688       5.28384267       8.17673100
49 1       34.13833113       5.28384267       8.17673100
50 1       38.15460538       5.28384267       8.17673100
51 1       42.17087963       5.28384267       8.17673100
52 1       46.18715388       5.28384267       8.17673100
53 1       50.20342813       5.28384267       8.17673100
54 1       54.21970238       5.28384267       8.17673100
55 1       58.23597663       5.28384267       8.17673100
56 1       62.25225088       5.28384267       8.17673100
57 1       66.26852513       5.28384267       8.17673100
58 1       70.28479938       5.28384267       8.17673100
59 1       74.30107363       5.28384267       8.17673100
60 1       78.31734788       5.28384267       8.17673100
61 1       82.33362213       5.28384267       8.17673100
62 1       86.34989638       5.28384267       8.17673100
63 1       90.36617063       5.28384267       8.17673100
64 1       94.38244488       5.28384267       8.17673100
65 1       98.39871913       5.28384267       8.17673100
66 1      102.41499338       5.28384267       8.17673100
67 1      106.43126763       5.28384267       8.17673100
68 1      110.44754188       5.28384267       8.17673100
69 1      114.46381613       5.28384267       8.17673100
70 1      118.48009038       5.28384267       8.17673100
71 1      122.49636463       5.28384267       8.17673100
72 1      126.51263888       5.28384267       8.17673100
73 1      130.52891313       5.28384267       8.17673100
74 1      134.54518738       5.28384267       8.17673100
75 1      138.56146163       5.28384267       8.17673100
76 1      142.57773588       5.28384267       8.17673100
77 1      146.59401013       5.28384267       8.17673100
78 1      150.61028438       5.28384267       8.17673100
79 1      154.62655863       5.28384267       8.17673100
80 1      158.64283288       5.28384267       8.17673100
81 1        2.00813713       9.48429633       8.17673100
82 1        6.02441138       9.48429633       8.17673100
83 1       10.04068563       9.48429633       8.17673100
84 1       14.05695988       9.48429633       8.17673100
85 1       18.07323413       9.48429633       8.17673100
86 1       22.08950838       9.48429633       8.17673100
87 1       26.10578263       9.48429633       8.17673100
88 1       30.12205688       9.48429633       8.17673100
89 1       34.13833113       9.48429633       8.17673100
90 1       38.15460538       9.48429633       8.17673100
91 1       42.17087963       9.48429633       8.17673100
92 1       46.18715388       9.48429633       8.17673100
93 1       50.20342813       9.48429633       8.17673100
94 1       54.21970238       9.48429633       8.17673100
95 1       58.23597663       9.48429633       8.17673100
96 1       62.25225088       9.48429633       8.17673100
97 1       66.26852513       9.48429633       8.17673100
98 1       70.28479938       9.48429633       8.17673100
99 1       74.30107363       9.48429633       8.17673100
100 1       78.31734788       9.48429633       8.17673100
101 1       82.33362213       9.48429633       8.17673100
102 1       86.34989638       9.48429633       8.17673100
103 1       90.36617063       9.48429633       8.17673100
104 1       94.38244488       9.48429633       8.17673100
105 1       98.39871913       9.48429633       8.17673100
106 1      102.41499338       9.48429633       8.17673100
107 1      106.43126763       9.48429633       8.17673100
108 1      110.44754188       9.48429633       8.17673100
109 1      114.46381613       9.48429633       8.17673100
110 1      118.48009038       9.48429633       8.17673100
111 1      122.49636463       9.48429633       8.17673100
112 1      126.51263888       9.48429633       8.17673100
113 1      130.52891313       9.48429633       8.17673100
114 1      134.54518738       9.48429633       8.17673100
115 1      138.56146163       9.48429633       8.17673100
116 1      142.57773588       9.48429633       8.17673100
117 1      146.59401013       9.48429633       8.17673100
118 1      150.61028438       9.48429633       8.17673100
119 1      154.62655863       9.48429633       8.17673100
120 1      158.64283288       9.48429633       8.17673100
121 1        2.00813713      13.68475000       8.17673100
122 1        6.02441138      13.68475000       8.17673100
123 1       10.04068563      13.68475000       8.17673100
124 1       14.05695988      13.68475000       8.17673100
125 1       18.07323413      13.68475000       8.17673100
126 1       22.08950838      13.68475000       8.17673100
127 1       26.10578263      13.68475000       8.17673100
128 1       30.12205688      13.68475000       8.17673100
129 1       34.13833113      13.68475000       8.17673100
130 1       38.15460538      13.68475000       8.17673100
131 1       42.17087963      13.68475000       8.17673100
132 1       46.18715388      13.68475000       8.17673100
133 1       50.20342813      13.68475000       8.17673100
134 1       54.21970238      13.68475000       8.17673100
135 1       58.23597663      13.68475000       8.17673100
136 1       62.25225088      13.68475000       8.17673100
137 1       66.26852513      13.68475000       8.17673100
138 1       70.28479938      13.68475000       8.17673100
139 1       74.30107363      13.68475000       8.17673100
140 1       78.31734788      13.68475000       8.17673100
141 1       82.33362213      13.68475000       8.17673100
142 1       86.34989638      13.68475000       8.17673100
143 1       90.36617063      13.68475000       8.17673100
144 1       94.38244488      13.68475000       8.17673100
145 1       98.39871913      13.68475000       8.17673100
146 1      102.41499338      13.68475000       8.17673100
147 1      106.43126763      13.68475000       8.17673100
148 1      110.44754188      13.68475000       8.17673100
149 1      114.46381613      13.68475000       8.17673100
150 1      118.48009038      13.68475000       8.17673100
151 1      122.49636463      13.68475000       8.17673100
152 1      126.51263888      13.68475000       8.17673100
153 1      130.52891313      13.68475000       8.17673100
154 1      134.54518738      13.68475000       8.17673100
155 1      138.56146163      13.68475000       8.17673100
156 1      142.57773588      13.68475000       8.17673100
157 1      146.59401013      13.68475000       8.17673100
158 1      150.61028438      13.68475000       8.17673100
159 1      154.62655863      13.68475000       8.17673100
160 1      158.64283288      13.68475000       8.17673100
161 1        2.00813713      17.88520367       8.17673100
162 1        6.02441138      17.88520367       8.17673100
163 1       10.04068563      17.88520367       8.17673100
164 1       14.05695988      17.88520367       8.17673100
165 1       18.07323413      17.88520367       8.17673100
166 1       22.08950838      17.88520367       8.17673100
167 1       26.10578263      17.88520367       8.17673100
168 1       30.12205688      17.88520367       8.17673100
169 1       34.13833113      17.88520367       8.17673100
170 1       38.15460538      17.88520367       8.17673100
171 1       42.17087963      17.88520367       8.17673100
172 1       46.18715388      17.88520367       8.17673100
173 1       50.20342813      17.88520367       8.17673100
174 1       54.21970238      17.88520367       8.17673100
175 1       58.23597663      17.88520367       8.17673100
176 1       62.25225088      17.88520367       8.17673100
177 1       66.26852513      17.88520367       8.17673100
178 1       70.28479938      17.88520367       8.17673100
179 1       74.30107363      17.88520367       8.17673100
180 1       78.31734788      17.88520367       8.17673100
181 1       82.33362213      17.88520367       8.17673100
182 1       86.34989638      17.88520367       8.17673100
183 1       90.36617063      17.88520367       8.17673100
184 1       94.38244488      17.88520367       8.17673100
185 1       98.39871913      17.88520367       8.17673100
186 1      102.41499338      17.88520367       8.17673100
187 1      106.43126763      17.88520367       8.17673100
188 1      110.44754188      17.88520367       8.17673100
189 1      114.46381613      17.88520367       8.17673100
190 1      118.48009038      17.88520367       8.17673100
191 1      122.49636463      17.88520367       8.17673100
192 1      126.51263888      17.88520367       8.17673100
193 1      130.52891313      17.88520367       8.17673100
194 1      134.54518738      17.88520367       8.17673100
195 1      138.56146163      17.88520367       8.17673100
196 1      142.57773588      17.88520367       8.17673100
197 1      146.59401013      17.88520367       8.17673100
198 1      150.61028438      17.88520367       8.17673100
199 1      154.62655863      17.88520367       8.17673100
200 1      158.64283288      17.88520367       8.17673100
201 1        0.00000000       3.18361583      10.60860100
202 1        4.01627425       3.18361583      10.60860100
203 1        8.03254850       3.18361583      10.60860100
204 1       12.04882275       3.18361583      10.60860100
205 1       16.06509700       3.18361583      10.60860100
206 1       20.08137125       3.18361583      10.60860100
207 1       24.09764550       3.18361583      10.60860100
208 1       28.11391975       3.18361583      10.60860100
209 1       32.13019400       3.18361583      10.60860100
210 1       36.14646825       3.18361583      10.60860100
211 1       40.16274250       3.18361583      10.60860100
212 1       44.17901675       3.18361583      10.60860100
213 1       48.19529100       3.18361583      10.60860100
214 1       52.21156525       3.18361583      10.60860100
215 1       56.22783950       3.18361583      10.60860100
216 1       60.24411375       3.18361583      10.60860100
217 1       64.26038800       3.18361583      10.60860100
218 1       68.27666225       3.18361583      10.60860100
219 1       72.29293650       3.18361583      10.60860100
220 1       76.30921075       3.18361583      10.60860100
221 1       80.32548500       3.18361583      10.60860100
222 1       84.34175925       3.18361583      10.60860100
223 1       88.35803350       3.18361583      10.60860100
224 1       92.37430775       3.18361583      10.60860100
225 1       96.39058200       3.18361583      10.60860100
226 1      100.40685625       3.18361583      10.60860100
227 1      104.42313050       3.18361583      10.60860100
228 1      108.43940475       3.18361583      10.60860100
229 1      112.45567900       3.18361583      10.60860100
230 1      116.47195325       3.18361583      10.60860100
231 1      120.48822750       3.18361583      10.60860100
232 1      124.50450175       3.18361583      10.60860100
233 1      128.52077600       3.18361583      10.60860100
234 1      132.53705025       3.18361583      10.60860100
235 1      136.55332450       3.18361583      10.60860100
236 1      140.56959875       3.18361583      10.60860100
237 1      144.58587300       3.18361583      10.60860100
238 1      148.60214725       3.18361583      10.60860100
239 1      152.61842150       3.18361583      10.60860100
240 1      156.63469575       3.18361583      10.60860100
241 1        0.00000000       7.38406950      10.60860100
242 1        4.01627425       7.38406950      10.60860100
243 1        8.03254850       7.38406950      10.60860100
244 1       12.04882275       7.38406950      10.60860100
245 1       16.06509700       7.38406950      10.60860100
246 1       20.08137125       7.38406950      10.60860100
247 1       24.09764550       7.38406950      10.60860100
248 1       28.11391975       7.38406950      10.60860100
249 1       32.13019400       7.38406950      10.60860100
250 1       36.14646825       7.38406950      10.60860100
251 1       40.16274250       7.38406950      10.60860100
252 1       44.17901675       7.38406950      10.60860100
253 1       48.19529100       7.38406950      10.60860100
254 1       52.21156525       7.38406950      10.60860100
255 1       56.22783950       7.38406950      10.60860100
256 1       60.24411375       7.38406950      10.60860100
257 1       64.26038800       7.38406950      10.60860100
258 1       68.27666225       7.38406950      10.60860100
259 1       72.29293650       7.38406950      10.60860100
260 1       76.30921075       7.38406950      10.60860100
261 1       80.32548500       7.38406950      10.60860100
262 1       84.34175925       7.38406950      10.60860100
263 1       88.35803350       7.38406950      10.60860100
264 1       92.37430775       7.38406950      10.60860100
265 1       96.39058200       7.38406950      10.60860100
266 1      100.40685625       7.38406950      10.60860100
267 1      104.42313050       7.38406950      10.60860100
268 1      108.43940475       7.38406950      10.60860100
269 1      112.45567900       7.38406950      10.60860100
270 1      116.47195325       7.38406950      10.60860100
271 1      120.48822750       7.38406950      10.60860100
272 1      124.50450175       7.38406950      10.60860100
273 1      128.52077600       7.38406950      10.60860100
274 1      132.53705025       7.38406950      10.60860100
275 1      136.55332450       7.38406950      10.60860100
276 1      140.56959875       7.38406950      10.60860100
277 1      144.58587300       7.38406950      10.60860100
278 1      148.60214725       7.38406950      10.60860100
279 1      152.61842150       7.38406950      10.60860100
280 1      156.63469575       7.38406950      10.60860100
281 1        0.00000000      11.58452317      10.60860100
282 1        4.01627425      11.58452317      10.60860100
283 1        8.03254850      11.58452317      10.60860100
284 1       12.04882275      11.58452317      10.60860100
285 1       16.06509700      11.58452317      10.60860100
286 1       20.08137125      11.58452317      10.60860100
287 1       24.09764550      11.58452317      10.60860100
288 1       28.11391975      11.58452317      10.60860100
289 1       32.13019400      11.58452317      10.60860100
290 1       36.14646825      11.58452317      10.60860100
291 1       40.16274250      11.58452317      10.60860100
292 1       44.17901675      11.58452317      10.60860100
293 1       48.19529100      11.58452317      10.60860100
294 1       52.21156525      11.58452317      10.60860100
295 1       56.22783950      11.58452317      10.60860100
296 1       60.24411375      11.58452317      10.60860100
297 1       64.26038800      11.58452317      10.60860100
298 1       68.27666225      11.58452317      10.60860100
299 1       72.29293650      11.58452317      10.60860100
300 1       76.30921075      11.58452317      10.60860100
301 1       80.32548500      11.58452317      10.60860100
302 1       84.34175925      11.58452317      10.60860100
303 1       88.35803350      11.58452317      10.60860100
304 1       92.37430775      11.58452317      10.60860100
305 1       96.39058200      11.58452317      10.60860100
306 1      100.40685625      11.58452317      10.60860100
307 1      104.42313050      11.58452317      10.60860100
308 1      108.43940475      11.58452317      10.60860100
309 1      112.45567900      11.58452317      10.60860100
310 1      116.47195325      11.58452317      10.60860100
311 1      120.48822750      11.58452317      10.60860100
312 1      124.50450175      11.58452317      10.60860100
313 1      128.52077600      11.58452317      10.60860100
314 1      132.53705025      11.58452317      10.60860100
315 1      136.55332450      11.58452317      10.60860100
316 1      140.56959875      11.58452317      10.60860100
317 1      144.58587300      11.58452317      10.60860100
318 1      148.60214725      11.58452317      10.60860100
319 1      152.61842150      11.58452317      10.60860100
320 1      156.63469575      11.58452317      10.60860100
321 1        0.00000000      15.78497683      10.60860100
322 1        4.01627425      15.78497683      10.60860100
323 1        8.03254850      15.78497683      10.60860100
324 1       12.04882275      15.78497683      10.60860100
325 1       16.06509700      15.78497683      10.60860100
326 1       20.08137125      15.78497683      10.60860100
327 1       24.09764550      15.78497683      10.60860100
328 1       28.11391975      15.78497683      10.60860100
329 1       32.13019400      15.78497683      10.60860100
330 1       36.14646825      15.78497683      10.60860100
331 1       40.16274250      15.78497683      10.60860100
332 1       44.17901675      15.78497683      10.60860100
333 1       48.19529100      15.78497683      10.60860100
334 1       52.21156525      15.78497683      10.60860100
335 1       56.22783950      15.78497683      10.60860100
336 1       60.24411375      15.78497683      10.60860100
337 1       64.26038800      15.78497683      10.60860100
338 1       68.27666225      15.78497683      10.60860100
339 1       72.29293650      15.78497683      10.60860100
340 1       76.30921075      15.78497683      10.60860100
341 1       80.32548500      15.78497683      10.60860100
342 1       84.34175925      15.78497683      10.60860100
343 1       88.35803350      15.78497683      10.60860100
344 1       92.37430775      15.78497683      10.60860100
345 1       96.39058200      15.78497683      10.60860100
346 1      100.40685625      15.78497683      10.60860100
347 1      104.42313050      15.78497683      10.60860100
348 1      108.43940475      15.78497683      10.60860100
349 1      112.45567900      15.78497683      10.60860100
350 1      116.47195325      15.78497683      10.60860100
351 1      120.48822750      15.78497683      10.60860100
352 1      124.50450175      15.78497683      10.60860100
353 1      128.52077600      15.78497683      10.60860100
354 1      132.53705025      15.78497683      10.60860100
355 1      136.55332450      15.78497683      10.60860100
356 1      140.56959875      15.78497683      10.60860100
357 1      144.58587300      15.78497683      10.60860100
358 1      148.60214725      15.78497683      10.60860100
359 1      152.61842150      15.78497683      10.60860100
360 1      156.63469575      15.78497683      10.60860100
361 1        0.00000000      19.98543050      10.60860100
362 1        4.01627425      19.98543050      10.60860100
363 1        8.03254850      19.98543050      10.60860100
364 1       12.04882275      19.98543050      10.60860100
365 1       16.06509700      19.98543050      10.60860100
366 1       20.08137125      19.98543050      10.60860100
367 1       24.09764550      19.98543050      10.60860100
368 1       28.11391975      19.98543050      10.60860100
369 1       32.13019400      19.98543050      10.60860100
370 1       36.14646825      19.98543050      10.60860100
371 1       40.16274250      19.98543050      10.60860100
372 1       44.17901675      19.98543050      10.60860100
373 1       48.19529100      19.98543050      10.60860100
374 1       52.21156525      19.98543050      10.60860100
375 1       56.22783950      19.98543050      10.60860100
376 1       60.24411375      19.98543050      10.60860100
377 1       64.26038800      19.98543050      10.60860100
378 1       68.27666225      19.98543050      10.60860100
379 1       72.29293650      19.98543050      10.60860100
380 1       76.30921075      19.98543050      10.60860100
381 1       80.32548500      19.98543050      10.60860100
382 1       84.34175925      19.98543050      10.60860100
383 1       88.35803350      19.98543050      10.60860100
384 1       92.37430775      19.98543050      10.60860100
385 1       96.39058200      19.98543050      10.60860100
386 1      100.40685625      19.98543050      10.60860100
387 1      104.42313050      19.98543050      10.60860100
388 1      108.43940475      19.98543050      10.60860100
389 1      112.45567900      19.98543050      10.60860100
390 1      116.47195325      19.98543050      10.60860100
391 1      120.48822750      19.98543050      10.60860100
392 1      124.50450175      19.98543050      10.60860100
393 1      128.52077600      19.98543050      10.60860100
394 1      132.53705025      19.98543050      10.60860100
395 1      136.55332450      19.98543050      10.60860100
396 1      140.56959875      19.98543050      10.60860100
397 1      144.58587300      19.98543050      10.60860100
398 1      148.60214725      19.98543050      10.60860100
399 1      152.61842150      19.98543050      10.60860100
400 1      156.63469575      19.98543050      10.60860100
401 2        2.00813713       0.72514483      10.69750100
402 2        6.02441138       0.72514483      10.69750100
403 2       10.04068563       0.72514483      10.69750100
404 2       14.05695988       0.72514483      10.69750100
405 2       18.07323413       0.72514483      10.69750100
406 2       22.08950838       0.72514483      10.69750100
407 2       26.10578263       0.72514483      10.69750100
408 2       30.12205688       0.72514483      10.69750100
409 2       34.13833113       0.72514483      10.69750100
410 2       38.15460538       0.72514483      10.69750100
411 2       42.17087963       0.72514483      10.69750100
412 2       46.18715388       0.72514483      10.69750100
413 2       50.20342813       0.72514483      10.69750100
414 2       54.21970238       0.72514483      10.69750100
415 2       58.23597663       0.72514483      10.69750100
416 2       62.25225088       0.72514483      10.69750100
417 2       66.26852513       0.72514483      10.69750100
418 2       70.28479938       0.72514483      10.69750100
419 2       74.30107363       0.72514483      10.69750100
420 2       78.31734788       0.72514483      10.69750100
421 2       82.33362213       0.72514483      10.69750100
422 2       86.34989638       0.72514483      10.69750100
423 2       90.36617063       0.72514483      10.69750100
424 2       94.38244488       0.72514483      10.69750100
425 2       98.39871913       0.72514483      10.69750100
426 2      102.41499338       0.72514483      10.69750100
427 2      106.43126763       0.72514483      10.69750100
428 2      110.44754188       0.72514483      10.69750100
429 2      114.46381613       0.72514483      10.69750100
430 2      118.48009038       0.72514483      10.69750100
431 2      122.49636463       0.72514483      10.69750100
432 2      126.51263888       0.72514483      10.69750100
433 2      130.52891313       0.72514483      10.69750100
434 2      134.54518738       0.72514483      10.69750100
435 2      138.56146163       0.72514483      10.69750100
436 2      142.57773588       0.72514483      10.69750100
437 2      146.59401013       0.72514483      10.69750100
438 2      150.61028438       0.72514483      10.69750100
439 2      154.62655863       0.72514483      10.69750100
440 2      158.64283288       0.72514483      10.69750100
441 2        2.00813713       4.92559850      10.69750100
442 2        6.02441138       4.92559850      10.69750100
443 2       10.04068563       4.92559850      10.69750100
444 2       14.05695988       4.92559850      10.69750100
445 2       18.07323413       4.92559850      10.69750100
446 2       22.08950838       4.92559850      10.69750100
447 2       26.10578263       4.92559850      10.69750100
448 2       30.12205688       4.92559850      10.69750100
449 2       34.13833113       4.92559850      10.69750100
450 2       38.15460538       4.92559850      10.69750100
451 2       42.17087963       4.92559850      10.69750100
452 2       46.18715388       4.92559850      10.69750100
453 2       50.20342813       4.92559850      10.69750100
454 2       54.21970238       4.92559850      10.69750100
455 2       58.23597663       4.92559850      10.69750100
456 2       62.25225088       4.92559850      10.69750100
457 2       66.26852513       4.92559850      10.69750100
458 2       70.28479938       4.92559850      10.69750100
459 2       74.30107363       4.92559850      10.69750100
460 2       78.31734788       4.92559850      10.69750100
461 2       82.33362213       4.92559850      10.69750100
462 2       86.34989638       4.92559850      10.69750100
463 2       90.36617063       4.92559850      10.69750100
464 2       94.38244488       4.92559850      10.69750100
465 2       98.39871913       4.92559850      10.69750100
466 2      102.41499338       4.92559850      10.69750100
467 2      106.43126763       4.92559850      10.69750100
468 2      110.44754188       4.92559850      10.69750100
469 2      114.46381613       4.92559850      10.69750100
470 2      118.48009038       4.92559850      10.69750100
471 2      122.49636463       4.92559850      10.69750100
472 2      126.51263888       4.92559850      10.69750100
473 2      130.52891313       4.92559850      10.69750100
474 2      134.54518738       4.92559850      10.69750100
475 2      138.56146163       4.92559850      10.69750100
476 2      142.57773588       4.92559850      10.69750100
477 2      146.59401013       4.92559850      10.69750100
478 2      150.61028438       4.92559850      10.69750100
479 2      154.62655863       4.92559850      10.69750100
480 2      158.64283288       4.92559850      10.69750100
481 2        2.00813713       9.12605217      10.69750100
482 2        6.02441138       9.12605217      10.69750100
483 2       10.04068563       9.12605217      10.69750100
484 2       14.05695988       9.12605217      10.69750100
485 2       18.07323413       9.12605217      10.69750100
486 2       22.08950838       9.12605217      10.69750100
487 2       26.10578263       9.12605217      10.69750100
488 2       30.12205688       9.12605217      10.69750100
489 2       34.13833113       9.12605217      10.69750100
490 2       38.15460538       9.12605217      10.69750100
491 2       42.17087963       9.12605217      10.69750100
492 2       46.18715388       9.12605217      10.69750100
493 2       50.20342813       9.12605217      10.69750100
494 2       54.21970238       9.12605217      10.69750100
495 2       58.23597663       9.12605217      10.69750100
496 2       62.25225088       9.12605217      10.69750100
497 2       66.26852513       9.12605217      10.69750100
498 2       70.28479938       9.12605217      10.69750100
499 2       74.30107363       9.12605217      10.69750100
500 2       78.31734788       9.12605217      10.69750100
501 2       82.33362213       9.12605217      10.69750100
502 2       86.34989638       9.12605217      10.69750100
503 2       90.36617063       9.12605217      10.69750100
504 2       94.38244488       9.12605217      10.69750100
505 2       98.39871913       9.12605217      10.69750100
506 2      102.41499338       9.12605217      10.69750100
507 2      106.43126763       9.12605217      10.69750100
508 2      110.44754188       9.12605217      10.69750100
509 2      114.46381613       9.12605217      10.69750100
510 2      118.48009038       9.12605217      10.69750100
511 2      122.49636463       9.12605217      10.69750100
512 2      126.51263888       9.12605217      10.69750100
513 2      130.52891313       9.12605217      10.69750100
514 2      134.54518738       9.12605217      10.69750100