# generated from Phonopy-lammps interface by Xiaofeng Qian at TAMU (2018)
5600 atoms
2 atom types

0.00000000     160.65097000 xlo xhi
-10.00000000     157.01587835 ylo yhi
0.00000000      18.78533200 zlo zhi

      0.00000000       0.00000000       0.00000000 xy xz yz

Atoms

1 1        2.00813713       1.08338900       8.17673100
2 1        6.02441138       1.08338900       8.17673100
3 1       10.04068563       1.08338900       8.17673100
4 1       14.05695988       1.08338900       8.17673100
5 1       18.07323413       1.08338900       8.17673100
6 1       22.08950838       1.08338900       8.17673100
7 1       26.10578263       1.08338900       8.17673100
8 1       30.12205688       1.08338900       8.17673100
9 1       34.13833113       1.08338900       8.17673100
10 1       38.15460538       1.08338900       8.17673100
11 1       42.17087963       1.08338900       8.17673100
12 1       46.18715388       1.08338900       8.17673100
13 1       50.20342813       1.08338900       8.17673100
14 1       54.21970238       1.08338900       8.17673100
15 1       58.23597663       1.08338900       8.17673100
16 1       62.25225088       1.08338900       8.17673100
17 1       66.26852513       1.08338900       8.17673100
18 1       70.28479938       1.08338900       8.17673100
19 1       74.30107363       1.08338900       8.17673100
20 1       78.31734788       1.08338900       8.17673100
21 1       82.33362213       1.08338900       8.17673100
22 1       86.34989638       1.08338900       8.17673100
23 1       90.36617063       1.08338900       8.17673100
24 1       94.38244488       1.08338900       8.17673100
25 1       98.39871913       1.08338900       8.17673100
26 1      102.41499338       1.08338900       8.17673100
27 1      106.43126763       1.08338900       8.17673100
28 1      110.44754188       1.08338900       8.17673100
29 1      114.46381613       1.08338900       8.17673100
30 1      118.48009038       1.08338900       8.17673100
31 1      122.49636463       1.08338900       8.17673100
32 1      126.51263888       1.08338900       8.17673100
33 1      130.52891313       1.08338900       8.17673100
34 1      134.54518738       1.08338900       8.17673100
35 1      138.56146163       1.08338900       8.17673100
36 1      142.57773588       1.08338900       8.17673100
37 1      146.59401013       1.08338900       8.17673100
38 1      150.61028438       1.08338900       8.17673100
39 1      154.62655863       1.08338900       8.17673100
40 1      158.64283288       1.08338900       8.17673100
41 1        2.00813713       5.28384267       8.17673100
42 1        6.02441138       5.28384267       8.17673100
43 1       10.04068563       5.28384267       8.17673100
44 1       14.05695988       5.28384267       8.17673100
45 1       18.07323413       5.28384267       8.17673100
46 1       22.08950838       5.28384267       8.17673100
47 1       26.10578263       5.28384267       8.17673100
48 1       30.12205688       5.28384267       8.17673100
49 1       34.13833113       5.28384267       8.17673100
50 1       38.15460538       5.28384267       8.17673100
51 1       42.17087963       5.28384267       8.17673100
52 1       46.18715388       5.28384267       8.17673100
53 1       50.20342813       5.28384267       8.17673100
54 1       54.21970238       5.28384267       8.17673100
55 1       58.23597663       5.28384267       8.17673100
56 1       62.25225088       5.28384267       8.17673100
57 1       66.26852513       5.28384267       8.17673100
58 1       70.28479938       5.28384267       8.17673100
59 1       74.30107363       5.28384267       8.17673100
60 1       78.31734788       5.28384267       8.17673100
61 1       82.33362213       5.28384267       8.17673100
62 1       86.34989638       5.28384267       8.17673100
63 1       90.36617063       5.28384267       8.17673100
64 1       94.38244488       5.28384267       8.17673100
65 1       98.39871913       5.28384267       8.17673100
66 1      102.41499338       5.28384267       8.17673100
67 1      106.43126763       5.28384267       8.17673100
68 1      110.44754188       5.28384267       8.17673100
69 1      114.46381613       5.28384267       8.17673100
70 1      118.48009038       5.28384267       8.17673100
71 1      122.49636463       5.28384267       8.17673100
72 1      126.51263888       5.28384267       8.17673100
73 1      130.52891313       5.28384267       8.17673100
74 1      134.54518738       5.28384267       8.17673100
75 1      138.56146163       5.28384267       8.17673100
76 1      142.57773588       5.28384267       8.17673100
77 1      146.59401013       5.28384267       8.17673100
78 1      150.61028438       5.28384267       8.17673100
79 1      154.62655863       5.28384267       8.17673100
80 1      158.64283288       5.28384267       8.17673100
81 1        2.00813713       9.48429633       8.17673100
82 1        6.02441138       9.48429633       8.17673100
83 1       10.04068563       9.48429633       8.17673100
84 1       14.05695988       9.48429633       8.17673100
85 1       18.07323413       9.48429633       8.17673100
86 1       22.08950838       9.48429633       8.17673100
87 1       26.10578263       9.48429633       8.17673100
88 1       30.12205688       9.48429633       8.17673100
89 1       34.13833113       9.48429633       8.17673100
90 1       38.15460538       9.48429633       8.17673100
91 1       42.17087963       9.48429633       8.17673100
92 1       46.18715388       9.48429633       8.17673100
93 1       50.20342813       9.48429633       8.17673100
94 1       54.21970238       9.48429633       8.17673100
95 1       58.23597663       9.48429633       8.17673100
96 1       62.25225088       9.48429633       8.17673100
97 1       66.26852513       9.48429633       8.17673100
98 1       70.28479938       9.48429633       8.17673100
99 1       74.30107363       9.48429633       8.17673100
100 1       78.31734788       9.48429633       8.17673100
101 1       82.33362213       9.48429633       8.17673100
102 1       86.34989638       9.48429633       8.17673100
103 1       90.36617063       9.48429633       8.17673100
104 1       94.38244488       9.48429633       8.17673100
105 1       98.39871913       9.48429633       8.17673100
106 1      102.41499338       9.48429633       8.17673100
107 1      106.43126763       9.48429633       8.17673100
108 1      110.44754188       9.48429633       8.17673100
109 1      114.46381613       9.48429633       8.17673100
110 1      118.48009038       9.48429633       8.17673100
111 1      122.49636463       9.48429633       8.17673100
112 1      126.51263888       9.48429633       8.17673100
113 1      130.52891313       9.48429633       8.17673100
114 1      134.54518738       9.48429633       8.17673100
115 1      138.56146163       9.48429633       8.17673100
116 1      142.57773588       9.48429633       8.17673100
117 1      146.59401013       9.48429633       8.17673100
118 1      150.61028438       9.48429633       8.17673100
119 1      154.62655863       9.48429633       8.17673100
120 1      158.64283288       9.48429633       8.17673100
121 1        2.00813713      13.68475000       8.17673100
122 1        6.02441138      13.68475000       8.17673100
123 1       10.04068563      13.68475000       8.17673100
124 1       14.05695988      13.68475000       8.17673100
125 1       18.07323413      13.68475000       8.17673100
126 1       22.08950838      13.68475000       8.17673100
127 1       26.10578263      13.68475000       8.17673100
128 1       30.12205688      13.68475000       8.17673100
129 1       34.13833113      13.68475000       8.17673100
130 1       38.15460538      13.68475000       8.17673100
131 1       42.17087963      13.68475000       8.17673100
132 1       46.18715388      13.68475000       8.17673100
133 1       50.20342813      13.68475000       8.17673100
134 1       54.21970238      13.68475000       8.17673100
135 1       58.23597663      13.68475000       8.17673100
136 1       62.25225088      13.68475000       8.17673100
137 1       66.26852513      13.68475000       8.17673100
138 1       70.28479938      13.68475000       8.17673100
139 1       74.30107363      13.68475000       8.17673100
140 1       78.31734788      13.68475000       8.17673100
141 1       82.33362213      13.68475000       8.17673100
142 1       86.34989638      13.68475000       8.17673100
143 1       90.36617063      13.68475000       8.17673100
144 1       94.38244488      13.68475000       8.17673100
145 1       98.39871913      13.68475000       8.17673100
146 1      102.41499338      13.68475000       8.17673100
147 1      106.43126763      13.68475000       8.17673100
148 1      110.44754188      13.68475000       8.17673100
149 1      114.46381613      13.68475000       8.17673100
150 1      118.48009038      13.68475000       8.17673100
151 1      122.49636463      13.68475000       8.17673100
152 1      126.51263888      13.68475000       8.17673100
153 1      130.52891313      13.68475000       8.17673100
154 1      134.54518738      13.68475000       8.17673100
155 1      138.56146163      13.68475000       8.17673100
156 1      142.57773588      13.68475000       8.17673100
157 1      146.59401013      13.68475000       8.17673100
158 1      150.61028438      13.68475000       8.17673100
159 1      154.62655863      13.68475000       8.17673100
160 1      158.64283288      13.68475000       8.17673100
161 1        2.00813713      17.88520367       8.17673100
162 1        6.02441138      17.88520367       8.17673100
163 1       10.04068563      17.88520367       8.17673100
164 1       14.05695988      17.88520367       8.17673100
165 1       18.07323413      17.88520367       8.17673100
166 1       22.08950838      17.88520367       8.17673100
167 1       26.10578263      17.88520367       8.17673100
168 1       30.12205688      17.88520367       8.17673100
169 1       34.13833113      17.88520367       8.17673100
170 1       38.15460538      17.88520367       8.17673100
171 1       42.17087963      17.88520367       8.17673100
172 1       46.18715388      17.88520367       8.17673100
173 1       50.20342813      17.88520367       8.17673100
174 1       54.21970238      17.88520367       8.17673100
175 1       58.23597663      17.88520367       8.17673100
176 1       62.25225088      17.88520367       8.17673100
177 1       66.26852513      17.88520367       8.17673100
178 1       70.28479938      17.88520367       8.17673100
179 1       74.30107363      17.88520367       8.17673100
180 1       78.31734788      17.88520367       8.17673100
181 1       82.33362213      17.88520367       8.17673100
182 1       86.34989638      17.88520367       8.17673100
183 1       90.36617063      17.88520367       8.17673100
184 1       94.38244488      17.88520367       8.17673100
185 1       98.39871913      17.88520367       8.17673100
186 1      102.41499338      17.88520367       8.17673100
187 1      106.43126763      17.88520367       8.17673100
188 1      110.44754188      17.88520367       8.17673100
189 1      114.46381613      17.88520367       8.17673100
190 1      118.48009038      17.88520367       8.17673100
191 1      122.49636463      17.88520367       8.17673100
192 1      126.51263888      17.88520367       8.17673100
193 1      130.52891313      17.88520367       8.17673100
194 1      134.54518738      17.88520367       8.17673100
195 1      138.56146163      17.88520367       8.17673100
196 1      142.57773588      17.88520367       8.17673100
197 1      146.59401013      17.88520367       8.17673100
198 1      150.61028438      17.88520367       8.17673100
199 1      154.62655863      17.88520367       8.17673100
200 1      158.64283288      17.88520367       8.17673100
201 1        2.00813713      22.08565733       8.17673100
202 1        6.02441138      22.08565733       8.17673100
203 1       10.04068563      22.08565733       8.17673100
204 1       14.05695988      22.08565733       8.17673100
205 1       18.07323413      22.08565733       8.17673100
206 1       22.08950838      22.08565733       8.17673100
207 1       26.10578263      22.08565733       8.17673100
208 1       30.12205688      22.08565733       8.17673100
209 1       34.13833113      22.08565733       8.17673100
210 1       38.15460538      22.08565733       8.17673100
211 1       42.17087963      22.08565733       8.17673100
212 1       46.18715388      22.08565733       8.17673100
213 1       50.20342813      22.08565733       8.17673100
214 1       54.21970238      22.08565733       8.17673100
215 1       58.23597663      22.08565733       8.17673100
216 1       62.25225088      22.08565733       8.17673100
217 1       66.26852513      22.08565733       8.17673100
218 1       70.28479938      22.08565733       8.17673100
219 1       74.30107363      22.08565733       8.17673100
220 1       78.31734788      22.08565733       8.17673100
221 1       82.33362213      22.08565733       8.17673100
222 1       86.34989638      22.08565733       8.17673100
223 1       90.36617063      22.08565733       8.17673100
224 1       94.38244488      22.08565733       8.17673100
225 1       98.39871913      22.08565733       8.17673100
226 1      102.41499338      22.08565733       8.17673100
227 1      106.43126763      22.08565733       8.17673100
228 1      110.44754188      22.08565733       8.17673100
229 1      114.46381613      22.08565733       8.17673100
230 1      118.48009038      22.08565733       8.17673100
231 1      122.49636463      22.08565733       8.17673100
232 1      126.51263888      22.08565733       8.17673100
233 1      130.52891313      22.08565733       8.17673100
234 1      134.54518738      22.08565733       8.17673100
235 1      138.56146163      22.08565733       8.17673100
236 1      142.57773588      22.08565733       8.17673100
237 1      146.59401013      22.08565733       8.17673100
238 1      150.61028438      22.08565733       8.17673100
239 1      154.62655863      22.08565733       8.17673100
240 1      158.64283288      22.08565733       8.17673100
241 1        2.00813713      26.28611100       8.17673100
242 1        6.02441138      26.28611100       8.17673100
243 1       10.04068563      26.28611100       8.17673100
244 1       14.05695988      26.28611100       8.17673100
245 1       18.07323413      26.28611100       8.17673100
246 1       22.08950838      26.28611100       8.17673100
247 1       26.10578263      26.28611100       8.17673100
248 1       30.12205688      26.28611100       8.17673100
249 1       34.13833113      26.28611100       8.17673100
250 1       38.15460538      26.28611100       8.17673100
251 1       42.17087963      26.28611100       8.17673100
252 1       46.18715388      26.28611100       8.17673100
253 1       50.20342813      26.28611100       8.17673100
254 1       54.21970238      26.28611100       8.17673100
255 1       58.23597663      26.28611100       8.17673100
256 1       62.25225088      26.28611100       8.17673100
257 1       66.26852513      26.28611100       8.17673100
258 1       70.28479938      26.28611100       8.17673100
259 1       74.30107363      26.28611100       8.17673100
260 1       78.31734788      26.28611100       8.17673100
261 1       82.33362213      26.28611100       8.17673100
262 1       86.34989638      26.28611100       8.17673100
263 1       90.36617063      26.28611100       8.17673100
264 1       94.38244488      26.28611100       8.17673100
265 1       98.39871913      26.28611100       8.17673100
266 1      102.41499338      26.28611100       8.17673100
267 1      106.43126763      26.28611100       8.17673100
268 1      110.44754188      26.28611100       8.17673100
269 1      114.46381613      26.28611100       8.17673100
270 1      118.48009038      26.28611100       8.17673100
271 1      122.49636463      26.28611100       8.17673100
272 1      126.51263888      26.28611100       8.17673100
273 1      130.52891313      26.28611100       8.17673100
274 1      134.54518738      26.28611100       8.17673100
275 1      138.56146163      26.28611100       8.17673100
276 1      142.57773588      26.28611100       8.17673100
277 1      146.59401013      26.28611100       8.17673100
278 1      150.61028438      26.28611100       8.17673100
279 1      154.62655863      26.28611100       8.17673100
280 1      158.64283288      26.28611100       8.17673100
281 1        2.00813713      30.48656467       8.17673100
282 1        6.02441138      30.48656467       8.17673100
283 1       10.04068563      30.48656467       8.17673100
284 1       14.05695988      30.48656467       8.17673100
285 1       18.07323413      30.48656467       8.17673100
286 1       22.08950838      30.48656467       8.17673100
287 1       26.10578263      30.48656467       8.17673100
288 1       30.12205688      30.48656467       8.17673100
289 1       34.13833113      30.48656467       8.17673100
290 1       38.15460538      30.48656467       8.17673100
291 1       42.17087963      30.48656467       8.17673100
292 1       46.18715388      30.48656467       8.17673100
293 1       50.20342813      30.48656467       8.17673100
294 1       54.21970238      30.48656467       8.17673100
295 1       58.23597663      30.48656467       8.17673100
296 1       62.25225088      30.48656467       8.17673100
297 1       66.26852513      30.48656467       8.17673100
298 1       70.28479938      30.48656467       8.17673100
299 1       74.30107363      30.48656467       8.17673100
300 1       78.31734788      30.48656467       8.17673100
301 1       82.33362213      30.48656467       8.17673100
302 1       86.34989638      30.48656467       8.17673100
303 1       90.36617063      30.48656467       8.17673100
304 1       94.38244488      30.48656467       8.17673100
305 1       98.39871913      30.48656467       8.17673100
306 1      102.41499338      30.48656467       8.17673100
307 1      106.43126763      30.48656467       8.17673100
308 1      110.44754188      30.48656467       8.17673100
309 1      114.46381613      30.48656467       8.17673100
310 1      118.48009038      30.48656467       8.17673100
311 1      122.49636463      30.48656467       8.17673100
312 1      126.51263888      30.48656467       8.17673100
313 1      130.52891313      30.48656467       8.17673100
314 1      134.54518738      30.48656467       8.17673100
315 1      138.56146163      30.48656467       8.17673100
316 1      142.57773588      30.48656467       8.17673100
317 1      146.59401013      30.48656467       8.17673100
318 1      150.61028438      30.48656467       8.17673100
319 1      154.62655863      30.48656467       8.17673100
320 1      158.64283288      30.48656467       8.17673100
321 1        2.00813713      34.68701833       8.17673100
322 1        6.02441138      34.68701833       8.17673100
323 1       10.04068563      34.68701833       8.17673100
324 1       14.05695988      34.68701833       8.17673100
325 1       18.07323413      34.68701833       8.17673100
326 1       22.08950838      34.68701833       8.17673100
327 1       26.10578263      34.68701833       8.17673100
328 1       30.12205688      34.68701833       8.17673100
329 1       34.13833113      34.68701833       8.17673100
330 1       38.15460538      34.68701833       8.17673100
331 1       42.17087963      34.68701833       8.17673100
332 1       46.18715388      34.68701833       8.17673100
333 1       50.20342813      34.68701833       8.17673100
334 1       54.21970238      34.68701833       8.17673100
335 1       58.23597663      34.68701833       8.17673100
336 1       62.25225088      34.68701833       8.17673100
337 1       66.26852513      34.68701833       8.17673100
338 1       70.28479938      34.68701833       8.17673100
339 1       74.30107363      34.68701833       8.17673100
340 1       78.31734788      34.68701833       8.17673100
341 1       82.33362213      34.68701833       8.17673100
342 1       86.34989638      34.68701833       8.17673100
343 1       90.36617063      34.68701833       8.17673100
344 1       94.38244488      34.68701833       8.17673100
345 1       98.39871913      34.68701833       8.17673100
346 1      102.41499338      34.68701833       8.17673100
347 1      106.43126763      34.68701833       8.17673100
348 1      110.44754188      34.68701833       8.17673100
349 1      114.46381613      34.68701833       8.17673100
350 1      118.48009038      34.68701833       8.17673100
351 1      122.49636463      34.68701833       8.17673100
352 1      126.51263888      34.68701833       8.17673100
353 1      130.52891313      34.68701833       8.17673100
354 1      134.54518738      34.68701833       8.17673100
355 1      138.56146163      34.68701833       8.17673100
356 1      142.57773588      34.68701833       8.17673100
357 1      146.59401013      34.68701833       8.17673100
358 1      150.61028438      34.68701833       8.17673100
359 1      154.62655863      34.68701833       8.17673100
360 1      158.64283288      34.68701833       8.17673100
361 1        2.00813713      38.88747200       8.17673100
362 1        6.02441138      38.88747200       8.17673100
363 1       10.04068563      38.88747200       8.17673100
364 1       14.05695988      38.88747200       8.17673100
365 1       18.07323413      38.88747200       8.17673100
366 1       22.08950838      38.88747200       8.17673100
367 1       26.10578263      38.88747200       8.17673100
368 1       30.12205688      38.88747200       8.17673100
369 1       34.13833113      38.88747200       8.17673100
370 1       38.15460538      38.88747200       8.17673100
371 1       42.17087963      38.88747200       8.17673100
372 1       46.18715388      38.88747200       8.17673100
373 1       50.20342813      38.88747200       8.17673100
374 1       54.21970238      38.88747200       8.17673100
375 1       58.23597663      38.88747200       8.17673100
376 1       62.25225088      38.88747200       8.17673100
377 1       66.26852513      38.88747200       8.17673100
378 1       70.28479938      38.88747200       8.17673100
379 1       74.30107363      38.88747200       8.17673100
380 1       78.31734788      38.88747200       8.17673100
381 1       82.33362213      38.88747200       8.17673100
382 1       86.34989638      38.88747200       8.17673100
383 1       90.36617063      38.88747200       8.17673100
384 1       94.38244488      38.88747200       8.17673100
385 1       98.39871913      38.88747200       8.17673100
386 1      102.41499338      38.88747200       8.17673100
387 1      106.43126763      38.88747200       8.17673100
388 1      110.44754188      38.88747200       8.17673100
389 1      114.46381613      38.88747200       8.17673100
390 1      118.48009038      38.88747200       8.17673100
391 1      122.49636463      38.88747200       8.17673100
392 1      126.51263888      38.88747200       8.17673100
393 1      130.52891313      38.88747200       8.17673100
394 1      134.54518738      38.88747200       8.17673100
395 1      138.56146163      38.88747200       8.17673100
396 1      142.57773588      38.88747200       8.17673100
397 1      146.59401013      38.88747200       8.17673100
398 1      150.61028438      38.88747200       8.17673100
399 1      154.62655863      38.88747200       8.17673100
400 1      158.64283288      38.88747200       8.17673100
401 1        2.00813713      43.08792567       8.17673100
402 1        6.02441138      43.08792567       8.17673100
403 1       10.04068563      43.08792567       8.17673100
404 1       14.05695988      43.08792567       8.17673100
405 1       18.07323413      43.08792567       8.17673100
406 1       22.08950838      43.08792567       8.17673100
407 1       26.10578263      43.08792567       8.17673100
408 1       30.12205688      43.08792567       8.17673100
409 1       34.13833113      43.08792567       8.17673100
410 1       38.15460538      43.08792567       8.17673100
411 1       42.17087963      43.08792567       8.17673100
412 1       46.18715388      43.08792567       8.17673100
413 1       50.20342813      43.08792567       8.17673100
414 1       54.21970238      43.08792567       8.17673100
415 1       58.23597663      43.08792567       8.17673100
416 1       62.25225088      43.08792567       8.17673100
417 1       66.26852513      43.08792567       8.17673100
418 1       70.28479938      43.08792567       8.17673100
419 1       74.30107363      43.08792567       8.17673100
420 1       78.31734788      43.08792567       8.17673100
421 1       82.33362213      43.08792567       8.17673100
422 1       86.34989638      43.08792567       8.17673100
423 1       90.36617063      43.08792567       8.17673100
424 1       94.38244488      43.08792567       8.17673100
425 1       98.39871913      43.08792567       8.17673100
426 1      102.41499338      43.08792567       8.17673100
427 1      106.43126763      43.08792567       8.17673100
428 1      110.44754188      43.08792567       8.17673100
429 1      114.46381613      43.08792567       8.17673100
430 1      118.48009038      43.08792567       8.17673100
431 1      122.49636463      43.08792567       8.17673100
432 1      126.51263888      43.08792567       8.17673100
433 1      130.52891313      43.08792567       8.17673100
434 1      134.54518738      43.08792567       8.17673100
435 1      138.56146163      43.08792567       8.17673100
436 1      142.57773588      43.08792567       8.17673100
437 1      146.59401013      43.08792567       8.17673100
438 1      150.61028438      43.08792567       8.17673100
439 1      154.62655863      43.08792567       8.17673100
440 1      158.64283288      43.08792567       8.17673100
441 1        2.00813713      47.28837934       8.17673100
442 1        6.02441138      47.28837934       8.17673100
443 1       10.04068563      47.28837934       8.17673100
444 1       14.05695988      47.28837934       8.17673100
445 1       18.07323413      47.28837934       8.17673100
446 1       22.08950838      47.28837934       8.17673100
447 1       26.10578263      47.28837934       8.17673100
448 1       30.12205688      47.28837934       8.17673100
449 1       34.13833113      47.28837934       8.17673100
450 1       38.15460538      47.28837934       8.17673100
451 1       42.17087963      47.28837934       8.17673100
452 1       46.18715388      47.28837934       8.17673100
453 1       50.20342813      47.28837934       8.17673100
454 1       54.21970238      47.28837934       8.17673100
455 1       58.23597663      47.28837934       8.17673100
456 1       62.25225088      47.28837934       8.17673100
457 1       66.26852513      47.28837934       8.17673100
458 1       70.28479938      47.28837934       8.17673100
459 1       74.30107363      47.28837934       8.17673100
460 1       78.31734788      47.28837934       8.17673100
461 1       82.33362213      47.28837934       8.17673100
462 1       86.34989638      47.28837934       8.17673100
463 1       90.36617063      47.28837934       8.17673100
464 1       94.38244488      47.28837934       8.17673100
465 1       98.39871913      47.28837934       8.17673100
466 1      102.41499338      47.28837934       8.17673100
467 1      106.43126763      47.28837934       8.17673100
468 1      110.44754188      47.28837934       8.17673100
469 1      114.46381613      47.28837934       8.17673100
470 1      118.48009038      47.28837934       8.17673100
471 1      122.49636463      47.28837934       8.17673100
472 1      126.51263888      47.28837934       8.17673100
473 1      130.52891313      47.28837934       8.17673100
474 1      134.54518738      47.28837934       8.17673100
475 1      138.56146163      47.28837934       8.17673100
476 1      142.57773588      47.28837934       8.17673100
477 1      146.59401013      47.28837934       8.17673100
478 1      150.61028438      47.28837934       8.17673100
479 1      154.62655863      47.28837934       8.17673100
480 1      158.64283288      47.28837934       8.17673100
481 1        2.00813713      51.48883300       8.17673100
482 1        6.02441138      51.48883300       8.17673100
483 1       10.04068563      51.48883300       8.17673100
484 1       14.05695988      51.48883300       8.17673100
485 1       18.07323413      51.48883300       8.17673100
486 1       22.08950838      51.48883300       8.17673100
487 1       26.10578263      51.48883300       8.17673100
488 1       30.12205688      51.48883300       8.17673100
489 1       34.13833113      51.48883300       8.17673100
490 1       38.15460538      51.48883300       8.17673100
491 1       42.17087963      51.48883300       8.17673100
492 1       46.18715388      51.48883300       8.17673100
493 1       50.20342813      51.48883300       8.17673100
494 1       54.21970238      51.48883300       8.17673100
495 1       58.23597663      51.48883300       8.17673100
496 1       62.25225088      51.48883300       8.17673100
497 1       66.26852513      51.48883300       8.17673100
498 1       70.28479938      51.48883300       8.17673100
499 1       74.30107363      51.48883300       8.17673100
500 1       78.31734788      51.48883300       8.17673100
501 1       82.33362213      51.48883300       8.17673100
502 1       86.34989638      51.48883300       8.17673100
503 1       90.36617063      51.48883300       8.17673100
504 1       94.38244488      51.48883300       8.17673100
505 1       98.39871913      51.48883300       8.17673100
506 1      102.41499338      51.48883300       8.17673100
507 1      106.43126763      51.48883300       8.17673100
508 1      110.44754188      51.48883300       8.17673100
509 1      114.46381613      51.48883300       8.17673100
510 1      118.48009038      51.48883300       8.17673100
511 1      122.49636463      51.48883300       8.17673100
512 1      126.51263888      51.48883300       8.17673100
513 1      130.52891313      51.48883300       8.17673100
514 1      134.54518738      51.48883300       8.17673100