# generated from Phonopy-lammps interface by Xiaofeng Qian at TAMU (2018)
1600 atoms
2 atom types

0.00000000     160.65097000 xlo xhi
0.00000000      42.00453667 ylo yhi
0.00000000      18.78533200 zlo zhi

      0.00000000       0.00000000       0.00000000 xy xz yz

Atoms

1 1        0.00000000       1.08338900      10.60860100
2 1        4.01627425       1.08338900      10.60860100
3 1        8.03254850       1.08338900      10.60860100
4 1       12.04882275       1.08338900      10.60860100
5 1       16.06509700       1.08338900      10.60860100
6 1       20.08137125       1.08338900      10.60860100
7 1       24.09764550       1.08338900      10.60860100
8 1       28.11391975       1.08338900      10.60860100
9 1       32.13019400       1.08338900      10.60860100
10 1       36.14646825       1.08338900      10.60860100
11 1       40.16274250       1.08338900      10.60860100
12 1       44.17901675       1.08338900      10.60860100
13 1       48.19529100       1.08338900      10.60860100
14 1       52.21156525       1.08338900      10.60860100
15 1       56.22783950       1.08338900      10.60860100
16 1       60.24411375       1.08338900      10.60860100
17 1       64.26038800       1.08338900      10.60860100
18 1       68.27666225       1.08338900      10.60860100
19 1       72.29293650       1.08338900      10.60860100
20 1       76.30921075       1.08338900      10.60860100
21 1       80.32548500       1.08338900      10.60860100
22 1       84.34175925       1.08338900      10.60860100
23 1       88.35803350       1.08338900      10.60860100
24 1       92.37430775       1.08338900      10.60860100
25 1       96.39058200       1.08338900      10.60860100
26 1      100.40685625       1.08338900      10.60860100
27 1      104.42313050       1.08338900      10.60860100
28 1      108.43940475       1.08338900      10.60860100
29 1      112.45567900       1.08338900      10.60860100
30 1      116.47195325       1.08338900      10.60860100
31 1      120.48822750       1.08338900      10.60860100
32 1      124.50450175       1.08338900      10.60860100
33 1      128.52077600       1.08338900      10.60860100
34 1      132.53705025       1.08338900      10.60860100
35 1      136.55332450       1.08338900      10.60860100
36 1      140.56959875       1.08338900      10.60860100
37 1      144.58587300       1.08338900      10.60860100
38 1      148.60214725       1.08338900      10.60860100
39 1      152.61842150       1.08338900      10.60860100
40 1      156.63469575       1.08338900      10.60860100
41 1        0.00000000       5.28384267      10.60860100
42 1        4.01627425       5.28384267      10.60860100
43 1        8.03254850       5.28384267      10.60860100
44 1       12.04882275       5.28384267      10.60860100
45 1       16.06509700       5.28384267      10.60860100
46 1       20.08137125       5.28384267      10.60860100
47 1       24.09764550       5.28384267      10.60860100
48 1       28.11391975       5.28384267      10.60860100
49 1       32.13019400       5.28384267      10.60860100
50 1       36.14646825       5.28384267      10.60860100
51 1       40.16274250       5.28384267      10.60860100
52 1       44.17901675       5.28384267      10.60860100
53 1       48.19529100       5.28384267      10.60860100
54 1       52.21156525       5.28384267      10.60860100
55 1       56.22783950       5.28384267      10.60860100
56 1       60.24411375       5.28384267      10.60860100
57 1       64.26038800       5.28384267      10.60860100
58 1       68.27666225       5.28384267      10.60860100
59 1       72.29293650       5.28384267      10.60860100
60 1       76.30921075       5.28384267      10.60860100
61 1       80.32548500       5.28384267      10.60860100
62 1       84.34175925       5.28384267      10.60860100
63 1       88.35803350       5.28384267      10.60860100
64 1       92.37430775       5.28384267      10.60860100
65 1       96.39058200       5.28384267      10.60860100
66 1      100.40685625       5.28384267      10.60860100
67 1      104.42313050       5.28384267      10.60860100
68 1      108.43940475       5.28384267      10.60860100
69 1      112.45567900       5.28384267      10.60860100
70 1      116.47195325       5.28384267      10.60860100
71 1      120.48822750       5.28384267      10.60860100
72 1      124.50450175       5.28384267      10.60860100
73 1      128.52077600       5.28384267      10.60860100
74 1      132.53705025       5.28384267      10.60860100
75 1      136.55332450       5.28384267      10.60860100
76 1      140.56959875       5.28384267      10.60860100
77 1      144.58587300       5.28384267      10.60860100
78 1      148.60214725       5.28384267      10.60860100
79 1      152.61842150       5.28384267      10.60860100
80 1      156.63469575       5.28384267      10.60860100
81 1        0.00000000       9.48429633      10.60860100
82 1        4.01627425       9.48429633      10.60860100
83 1        8.03254850       9.48429633      10.60860100
84 1       12.04882275       9.48429633      10.60860100
85 1       16.06509700       9.48429633      10.60860100
86 1       20.08137125       9.48429633      10.60860100
87 1       24.09764550       9.48429633      10.60860100
88 1       28.11391975       9.48429633      10.60860100
89 1       32.13019400       9.48429633      10.60860100
90 1       36.14646825       9.48429633      10.60860100
91 1       40.16274250       9.48429633      10.60860100
92 1       44.17901675       9.48429633      10.60860100
93 1       48.19529100       9.48429633      10.60860100
94 1       52.21156525       9.48429633      10.60860100
95 1       56.22783950       9.48429633      10.60860100
96 1       60.24411375       9.48429633      10.60860100
97 1       64.26038800       9.48429633      10.60860100
98 1       68.27666225       9.48429633      10.60860100
99 1       72.29293650       9.48429633      10.60860100
100 1       76.30921075       9.48429633      10.60860100
101 1       80.32548500       9.48429633      10.60860100
102 1       84.34175925       9.48429633      10.60860100
103 1       88.35803350       9.48429633      10.60860100
104 1       92.37430775       9.48429633      10.60860100
105 1       96.39058200       9.48429633      10.60860100
106 1      100.40685625       9.48429633      10.60860100
107 1      104.42313050       9.48429633      10.60860100
108 1      108.43940475       9.48429633      10.60860100
109 1      112.45567900       9.48429633      10.60860100
110 1      116.47195325       9.48429633      10.60860100
111 1      120.48822750       9.48429633      10.60860100
112 1      124.50450175       9.48429633      10.60860100
113 1      128.52077600       9.48429633      10.60860100
114 1      132.53705025       9.48429633      10.60860100
115 1      136.55332450       9.48429633      10.60860100
116 1      140.56959875       9.48429633      10.60860100
117 1      144.58587300       9.48429633      10.60860100
118 1      148.60214725       9.48429633      10.60860100
119 1      152.61842150       9.48429633      10.60860100
120 1      156.63469575       9.48429633      10.60860100
121 1        0.00000000      13.68475000      10.60860100
122 1        4.01627425      13.68475000      10.60860100
123 1        8.03254850      13.68475000      10.60860100
124 1       12.04882275      13.68475000      10.60860100
125 1       16.06509700      13.68475000      10.60860100
126 1       20.08137125      13.68475000      10.60860100
127 1       24.09764550      13.68475000      10.60860100
128 1       28.11391975      13.68475000      10.60860100
129 1       32.13019400      13.68475000      10.60860100
130 1       36.14646825      13.68475000      10.60860100
131 1       40.16274250      13.68475000      10.60860100
132 1       44.17901675      13.68475000      10.60860100
133 1       48.19529100      13.68475000      10.60860100
134 1       52.21156525      13.68475000      10.60860100
135 1       56.22783950      13.68475000      10.60860100
136 1       60.24411375      13.68475000      10.60860100
137 1       64.26038800      13.68475000      10.60860100
138 1       68.27666225      13.68475000      10.60860100
139 1       72.29293650      13.68475000      10.60860100
140 1       76.30921075      13.68475000      10.60860100
141 1       80.32548500      13.68475000      10.60860100
142 1       84.34175925      13.68475000      10.60860100
143 1       88.35803350      13.68475000      10.60860100
144 1       92.37430775      13.68475000      10.60860100
145 1       96.39058200      13.68475000      10.60860100
146 1      100.40685625      13.68475000      10.60860100
147 1      104.42313050      13.68475000      10.60860100
148 1      108.43940475      13.68475000      10.60860100
149 1      112.45567900      13.68475000      10.60860100
150 1      116.47195325      13.68475000      10.60860100
151 1      120.48822750      13.68475000      10.60860100
152 1      124.50450175      13.68475000      10.60860100
153 1      128.52077600      13.68475000      10.60860100
154 1      132.53705025      13.68475000      10.60860100
155 1      136.55332450      13.68475000      10.60860100
156 1      140.56959875      13.68475000      10.60860100
157 1      144.58587300      13.68475000      10.60860100
158 1      148.60214725      13.68475000      10.60860100
159 1      152.61842150      13.68475000      10.60860100
160 1      156.63469575      13.68475000      10.60860100
161 1        0.00000000      17.88520367      10.60860100
162 1        4.01627425      17.88520367      10.60860100
163 1        8.03254850      17.88520367      10.60860100
164 1       12.04882275      17.88520367      10.60860100
165 1       16.06509700      17.88520367      10.60860100
166 1       20.08137125      17.88520367      10.60860100
167 1       24.09764550      17.88520367      10.60860100
168 1       28.11391975      17.88520367      10.60860100
169 1       32.13019400      17.88520367      10.60860100
170 1       36.14646825      17.88520367      10.60860100
171 1       40.16274250      17.88520367      10.60860100
172 1       44.17901675      17.88520367      10.60860100
173 1       48.19529100      17.88520367      10.60860100
174 1       52.21156525      17.88520367      10.60860100
175 1       56.22783950      17.88520367      10.60860100
176 1       60.24411375      17.88520367      10.60860100
177 1       64.26038800      17.88520367      10.60860100
178 1       68.27666225      17.88520367      10.60860100
179 1       72.29293650      17.88520367      10.60860100
180 1       76.30921075      17.88520367      10.60860100
181 1       80.32548500      17.88520367      10.60860100
182 1       84.34175925      17.88520367      10.60860100
183 1       88.35803350      17.88520367      10.60860100
184 1       92.37430775      17.88520367      10.60860100
185 1       96.39058200      17.88520367      10.60860100
186 1      100.40685625      17.88520367      10.60860100
187 1      104.42313050      17.88520367      10.60860100
188 1      108.43940475      17.88520367      10.60860100
189 1      112.45567900      17.88520367      10.60860100
190 1      116.47195325      17.88520367      10.60860100
191 1      120.48822750      17.88520367      10.60860100
192 1      124.50450175      17.88520367      10.60860100
193 1      128.52077600      17.88520367      10.60860100
194 1      132.53705025      17.88520367      10.60860100
195 1      136.55332450      17.88520367      10.60860100
196 1      140.56959875      17.88520367      10.60860100
197 1      144.58587300      17.88520367      10.60860100
198 1      148.60214725      17.88520367      10.60860100
199 1      152.61842150      17.88520367      10.60860100
200 1      156.63469575      17.88520367      10.60860100
201 1        0.00000000      22.08565733      10.60860100
202 1        4.01627425      22.08565733      10.60860100
203 1        8.03254850      22.08565733      10.60860100
204 1       12.04882275      22.08565733      10.60860100
205 1       16.06509700      22.08565733      10.60860100
206 1       20.08137125      22.08565733      10.60860100
207 1       24.09764550      22.08565733      10.60860100
208 1       28.11391975      22.08565733      10.60860100
209 1       32.13019400      22.08565733      10.60860100
210 1       36.14646825      22.08565733      10.60860100
211 1       40.16274250      22.08565733      10.60860100
212 1       44.17901675      22.08565733      10.60860100
213 1       48.19529100      22.08565733      10.60860100
214 1       52.21156525      22.08565733      10.60860100
215 1       56.22783950      22.08565733      10.60860100
216 1       60.24411375      22.08565733      10.60860100
217 1       64.26038800      22.08565733      10.60860100
218 1       68.27666225      22.08565733      10.60860100
219 1       72.29293650      22.08565733      10.60860100
220 1       76.30921075      22.08565733      10.60860100
221 1       80.32548500      22.08565733      10.60860100
222 1       84.34175925      22.08565733      10.60860100
223 1       88.35803350      22.08565733      10.60860100
224 1       92.37430775      22.08565733      10.60860100
225 1       96.39058200      22.08565733      10.60860100
226 1      100.40685625      22.08565733      10.60860100
227 1      104.42313050      22.08565733      10.60860100
228 1      108.43940475      22.08565733      10.60860100
229 1      112.45567900      22.08565733      10.60860100
230 1      116.47195325      22.08565733      10.60860100
231 1      120.48822750      22.08565733      10.60860100
232 1      124.50450175      22.08565733      10.60860100
233 1      128.52077600      22.08565733      10.60860100
234 1      132.53705025      22.08565733      10.60860100
235 1      136.55332450      22.08565733      10.60860100
236 1      140.56959875      22.08565733      10.60860100
237 1      144.58587300      22.08565733      10.60860100
238 1      148.60214725      22.08565733      10.60860100
239 1      152.61842150      22.08565733      10.60860100
240 1      156.63469575      22.08565733      10.60860100
241 1        0.00000000      26.28611100      10.60860100
242 1        4.01627425      26.28611100      10.60860100
243 1        8.03254850      26.28611100      10.60860100
244 1       12.04882275      26.28611100      10.60860100
245 1       16.06509700      26.28611100      10.60860100
246 1       20.08137125      26.28611100      10.60860100
247 1       24.09764550      26.28611100      10.60860100
248 1       28.11391975      26.28611100      10.60860100
249 1       32.13019400      26.28611100      10.60860100
250 1       36.14646825      26.28611100      10.60860100
251 1       40.16274250      26.28611100      10.60860100
252 1       44.17901675      26.28611100      10.60860100
253 1       48.19529100      26.28611100      10.60860100
254 1       52.21156525      26.28611100      10.60860100
255 1       56.22783950      26.28611100      10.60860100
256 1       60.24411375      26.28611100      10.60860100
257 1       64.26038800      26.28611100      10.60860100
258 1       68.27666225      26.28611100      10.60860100
259 1       72.29293650      26.28611100      10.60860100
260 1       76.30921075      26.28611100      10.60860100
261 1       80.32548500      26.28611100      10.60860100
262 1       84.34175925      26.28611100      10.60860100
263 1       88.35803350      26.28611100      10.60860100
264 1       92.37430775      26.28611100      10.60860100
265 1       96.39058200      26.28611100      10.60860100
266 1      100.40685625      26.28611100      10.60860100
267 1      104.42313050      26.28611100      10.60860100
268 1      108.43940475      26.28611100      10.60860100
269 1      112.45567900      26.28611100      10.60860100
270 1      116.47195325      26.28611100      10.60860100
271 1      120.48822750      26.28611100      10.60860100
272 1      124.50450175      26.28611100      10.60860100
273 1      128.52077600      26.28611100      10.60860100
274 1      132.53705025      26.28611100      10.60860100
275 1      136.55332450      26.28611100      10.60860100
276 1      140.56959875      26.28611100      10.60860100
277 1      144.58587300      26.28611100      10.60860100
278 1      148.60214725      26.28611100      10.60860100
279 1      152.61842150      26.28611100      10.60860100
280 1      156.63469575      26.28611100      10.60860100
281 1        0.00000000      30.48656467      10.60860100
282 1        4.01627425      30.48656467      10.60860100
283 1        8.03254850      30.48656467      10.60860100
284 1       12.04882275      30.48656467      10.60860100
285 1       16.06509700      30.48656467      10.60860100
286 1       20.08137125      30.48656467      10.60860100
287 1       24.09764550      30.48656467      10.60860100
288 1       28.11391975      30.48656467      10.60860100
289 1       32.13019400      30.48656467      10.60860100
290 1       36.14646825      30.48656467      10.60860100
291 1       40.16274250      30.48656467      10.60860100
292 1       44.17901675      30.48656467      10.60860100
293 1       48.19529100      30.48656467      10.60860100
294 1       52.21156525      30.48656467      10.60860100
295 1       56.22783950      30.48656467      10.60860100
296 1       60.24411375      30.48656467      10.60860100
297 1       64.26038800      30.48656467      10.60860100
298 1       68.27666225      30.48656467      10.60860100
299 1       72.29293650      30.48656467      10.60860100
300 1       76.30921075      30.48656467      10.60860100
301 1       80.32548500      30.48656467      10.60860100
302 1       84.34175925      30.48656467      10.60860100
303 1       88.35803350      30.48656467      10.60860100
304 1       92.37430775      30.48656467      10.60860100
305 1       96.39058200      30.48656467      10.60860100
306 1      100.40685625      30.48656467      10.60860100
307 1      104.42313050      30.48656467      10.60860100
308 1      108.43940475      30.48656467      10.60860100
309 1      112.45567900      30.48656467      10.60860100
310 1      116.47195325      30.48656467      10.60860100
311 1      120.48822750      30.48656467      10.60860100
312 1      124.50450175      30.48656467      10.60860100
313 1      128.52077600      30.48656467      10.60860100
314 1      132.53705025      30.48656467      10.60860100
315 1      136.55332450      30.48656467      10.60860100
316 1      140.56959875      30.48656467      10.60860100
317 1      144.58587300      30.48656467      10.60860100
318 1      148.60214725      30.48656467      10.60860100
319 1      152.61842150      30.48656467      10.60860100
320 1      156.63469575      30.48656467      10.60860100
321 1        0.00000000      34.68701833      10.60860100
322 1        4.01627425      34.68701833      10.60860100
323 1        8.03254850      34.68701833      10.60860100
324 1       12.04882275      34.68701833      10.60860100
325 1       16.06509700      34.68701833      10.60860100
326 1       20.08137125      34.68701833      10.60860100
327 1       24.09764550      34.68701833      10.60860100
328 1       28.11391975      34.68701833      10.60860100
329 1       32.13019400      34.68701833      10.60860100
330 1       36.14646825      34.68701833      10.60860100
331 1       40.16274250      34.68701833      10.60860100
332 1       44.17901675      34.68701833      10.60860100
333 1       48.19529100      34.68701833      10.60860100
334 1       52.21156525      34.68701833      10.60860100
335 1       56.22783950      34.68701833      10.60860100
336 1       60.24411375      34.68701833      10.60860100
337 1       64.26038800      34.68701833      10.60860100
338 1       68.27666225      34.68701833      10.60860100
339 1       72.29293650      34.68701833      10.60860100
340 1       76.30921075      34.68701833      10.60860100
341 1       80.32548500      34.68701833      10.60860100
342 1       84.34175925      34.68701833      10.60860100
343 1       88.35803350      34.68701833      10.60860100
344 1       92.37430775      34.68701833      10.60860100
345 1       96.39058200      34.68701833      10.60860100
346 1      100.40685625      34.68701833      10.60860100
347 1      104.42313050      34.68701833      10.60860100
348 1      108.43940475      34.68701833      10.60860100
349 1      112.45567900      34.68701833      10.60860100
350 1      116.47195325      34.68701833      10.60860100
351 1      120.48822750      34.68701833      10.60860100
352 1      124.50450175      34.68701833      10.60860100
353 1      128.52077600      34.68701833      10.60860100
354 1      132.53705025      34.68701833      10.60860100
355 1      136.55332450      34.68701833      10.60860100
356 1      140.56959875      34.68701833      10.60860100
357 1      144.58587300      34.68701833      10.60860100
358 1      148.60214725      34.68701833      10.60860100
359 1      152.61842150      34.68701833      10.60860100
360 1      156.63469575      34.68701833      10.60860100
361 1        0.00000000      38.88747200      10.60860100
362 1        4.01627425      38.88747200      10.60860100
363 1        8.03254850      38.88747200      10.60860100
364 1       12.04882275      38.88747200      10.60860100
365 1       16.06509700      38.88747200      10.60860100
366 1       20.08137125      38.88747200      10.60860100
367 1       24.09764550      38.88747200      10.60860100
368 1       28.11391975      38.88747200      10.60860100
369 1       32.13019400      38.88747200      10.60860100
370 1       36.14646825      38.88747200      10.60860100
371 1       40.16274250      38.88747200      10.60860100
372 1       44.17901675      38.88747200      10.60860100
373 1       48.19529100      38.88747200      10.60860100
374 1       52.21156525      38.88747200      10.60860100
375 1       56.22783950      38.88747200      10.60860100
376 1       60.24411375      38.88747200      10.60860100
377 1       64.26038800      38.88747200      10.60860100
378 1       68.27666225      38.88747200      10.60860100
379 1       72.29293650      38.88747200      10.60860100
380 1       76.30921075      38.88747200      10.60860100
381 1       80.32548500      38.88747200      10.60860100
382 1       84.34175925      38.88747200      10.60860100
383 1       88.35803350      38.88747200      10.60860100
384 1       92.37430775      38.88747200      10.60860100
385 1       96.39058200      38.88747200      10.60860100
386 1      100.40685625      38.88747200      10.60860100
387 1      104.42313050      38.88747200      10.60860100
388 1      108.43940475      38.88747200      10.60860100
389 1      112.45567900      38.88747200      10.60860100
390 1      116.47195325      38.88747200      10.60860100
391 1      120.48822750      38.88747200      10.60860100
392 1      124.50450175      38.88747200      10.60860100
393 1      128.52077600      38.88747200      10.60860100
394 1      132.53705025      38.88747200      10.60860100
395 1      136.55332450      38.88747200      10.60860100
396 1      140.56959875      38.88747200      10.60860100
397 1      144.58587300      38.88747200      10.60860100
398 1      148.60214725      38.88747200      10.60860100
399 1      152.61842150      38.88747200      10.60860100
400 1      156.63469575      38.88747200      10.60860100
401 1        2.00813712       3.18361583       8.17673100
402 1        6.02441137       3.18361583       8.17673100
403 1       10.04068562       3.18361583       8.17673100
404 1       14.05695987       3.18361583       8.17673100
405 1       18.07323412       3.18361583       8.17673100
406 1       22.08950837       3.18361583       8.17673100
407 1       26.10578262       3.18361583       8.17673100
408 1       30.12205687       3.18361583       8.17673100
409 1       34.13833113       3.18361583       8.17673100
410 1       38.15460537       3.18361583       8.17673100
411 1       42.17087962       3.18361583       8.17673100
412 1       46.18715387       3.18361583       8.17673100
413 1       50.20342812       3.18361583       8.17673100
414 1       54.21970237       3.18361583       8.17673100
415 1       58.23597662       3.18361583       8.17673100
416 1       62.25225087       3.18361583       8.17673100
417 1       66.26852512       3.18361583       8.17673100
418 1       70.28479937       3.18361583       8.17673100
419 1       74.30107362       3.18361583       8.17673100
420 1       78.31734787       3.18361583       8.17673100
421 1       82.33362212       3.18361583       8.17673100
422 1       86.34989637       3.18361583       8.17673100
423 1       90.36617062       3.18361583       8.17673100
424 1       94.38244487       3.18361583       8.17673100
425 1       98.39871912       3.18361583       8.17673100
426 1      102.41499337       3.18361583       8.17673100
427 1      106.43126762       3.18361583       8.17673100
428 1      110.44754187       3.18361583       8.17673100
429 1      114.46381612       3.18361583       8.17673100
430 1      118.48009037       3.18361583       8.17673100
431 1      122.49636462       3.18361583       8.17673100
432 1      126.51263887       3.18361583       8.17673100
433 1      130.52891312       3.18361583       8.17673100
434 1      134.54518737       3.18361583       8.17673100
435 1      138.56146162       3.18361583       8.17673100
436 1      142.57773587       3.18361583       8.17673100
437 1      146.59401012       3.18361583       8.17673100
438 1      150.61028437       3.18361583       8.17673100
439 1      154.62655862       3.18361583       8.17673100
440 1      158.64283287       3.18361583       8.17673100
441 1        2.00813712       7.38406950       8.17673100
442 1        6.02441137       7.38406950       8.17673100
443 1       10.04068562       7.38406950       8.17673100
444 1       14.05695987       7.38406950       8.17673100
445 1       18.07323412       7.38406950       8.17673100
446 1       22.08950837       7.38406950       8.17673100
447 1       26.10578262       7.38406950       8.17673100
448 1       30.12205687       7.38406950       8.17673100
449 1       34.13833113       7.38406950       8.17673100
450 1       38.15460537       7.38406950       8.17673100
451 1       42.17087962       7.38406950       8.17673100
452 1       46.18715387       7.38406950       8.17673100
453 1       50.20342812       7.38406950       8.17673100
454 1       54.21970237       7.38406950       8.17673100
455 1       58.23597662       7.38406950       8.17673100
456 1       62.25225087       7.38406950       8.17673100
457 1       66.26852512       7.38406950       8.17673100
458 1       70.28479937       7.38406950       8.17673100
459 1       74.30107362       7.38406950       8.17673100
460 1       78.31734787       7.38406950       8.17673100
461 1       82.33362212       7.38406950       8.17673100
462 1       86.34989637       7.38406950       8.17673100
463 1       90.36617062       7.38406950       8.17673100
464 1       94.38244487       7.38406950       8.17673100
465 1       98.39871912       7.38406950       8.17673100
466 1      102.41499337       7.38406950       8.17673100
467 1      106.43126762       7.38406950       8.17673100
468 1      110.44754187       7.38406950       8.17673100
469 1      114.46381612       7.38406950       8.17673100
470 1      118.48009037       7.38406950       8.17673100
471 1      122.49636462       7.38406950       8.17673100
472 1      126.51263887       7.38406950       8.17673100
473 1      130.52891312       7.38406950       8.17673100
474 1      134.54518737       7.38406950       8.17673100
475 1      138.56146162       7.38406950       8.17673100
476 1      142.57773587       7.38406950       8.17673100
477 1      146.59401012       7.38406950       8.17673100
478 1      150.61028437       7.38406950       8.17673100
479 1      154.62655862       7.38406950       8.17673100
480 1      158.64283287       7.38406950       8.17673100
481 1        2.00813712      11.58452317       8.17673100
482 1        6.02441137      11.58452317       8.17673100
483 1       10.04068562      11.58452317       8.17673100
484 1       14.05695987      11.58452317       8.17673100
485 1       18.07323412      11.58452317       8.17673100
486 1       22.08950837      11.58452317       8.17673100
487 1       26.10578262      11.58452317       8.17673100
488 1       30.12205687      11.58452317       8.17673100
489 1       34.13833113      11.58452317       8.17673100
490 1       38.15460537      11.58452317       8.17673100
491 1       42.17087962      11.58452317       8.17673100
492 1       46.18715387      11.58452317       8.17673100
493 1       50.20342812      11.58452317       8.17673100
494 1       54.21970237      11.58452317       8.17673100
495 1       58.23597662      11.58452317       8.17673100
496 1       62.25225087      11.58452317       8.17673100
497 1       66.26852512      11.58452317       8.17673100
498 1       70.28479937      11.58452317       8.17673100
499 1       74.30107362      11.58452317       8.17673100
500 1       78.31734787      11.58452317       8.17673100
501 1       82.33362212      11.58452317       8.17673100
502 1       86.34989637      11.58452317       8.17673100
503 1       90.36617062      11.58452317       8.17673100
504 1       94.38244487      11.58452317       8.17673100
505 1       98.39871912      11.58452317       8.17673100
506 1      102.41499337      11.58452317       8.17673100
507 1      106.43126762      11.58452317       8.17673100
508 1      110.44754187      11.58452317       8.17673100
509 1      114.46381612      11.58452317       8.17673100
510 1      118.48009037      11.58452317       8.17673100
511 1      122.49636462      11.58452317       8.17673100
512 1      126.51263887      11.58452317       8.17673100
513 1      130.52891312      11.58452317       8.17673100
514 1      134.54518737      11.58452317       8.17673100